
  ___ ___ ___ _ _ _  
 |   |   |_  | | | | 
 | | | | | . | | | | 
 |__ |  _|___|_____|  0.7.2.6974
 |___|_|             

User: alemi@Cerebellum
Date: Thu Feb  3 01:57:57 2011
Arch: i686
Pid:  18134
Dir:  /usr/lib/python2.6/dist-packages/gpaw
ase:   /home/alemi/ase/ase  version:  3.5.0.1614
numpy: /usr/lib/python2.6/dist-packages/numpy
units: Angstrom and eV

Memory estimate
---------------
Calculator  128.98 MiB
    Initial overhead  123.69 MiB
    Density  2.65 MiB
        Arrays  0.10 MiB
        Localized functions  2.24 MiB
        Mixer  0.02 MiB
        Interpolator  0.28 MiB
    Hamiltonian  0.77 MiB
        Arrays  0.07 MiB
        Restrictor  0.16 MiB
        XC 3D grid  0.03 MiB
        Poisson  0.35 MiB
        vbar  0.17 MiB
    Wavefunctions  1.87 MiB
        Arrays psit_nG  1.17 MiB
        Eigensolver  0.16 MiB
        Projectors  0.38 MiB
        Overlap op  0.12 MiB
        Kinetic operator  0.04 MiB

Positions:
  0 Cu    0.0000    0.0000    0.0000

                
                
                
                
       Cu       
                
                
                

Unit Cell:
           Periodic     X           Y           Z      Points  Spacing
  --------------------------------------------------------------------
  1. axis:    yes    0.000000    1.500000    1.500000     8     0.2652
  2. axis:    yes    1.500000    0.000000    1.500000     8     0.2652
  3. axis:    yes    1.500000    1.500000    0.000000     8     0.2652

Cu-setup:
  name   : Copper
  id     : 0f0e166f2a1531348bd10bcfa07bef11
  Z      : 29
  valence: 11
  core   : 18
  charge : 0.0
  file   : /usr/share/gpaw-setups/Cu.LDA.gz
  cutoffs: 1.06(comp), 2.06(filt), 2.43(core), lmax=2
  valence states:
            energy   radius
    4s(1)   -4.857   1.164
    4p(0)   -0.783   1.164
    3d(10)  -5.324   1.058
    *s      22.354   1.164
    *p      26.429   1.164
    *d      21.887   1.058

Using partial waves for Cu as LCAO basis

Using the LDA Exchange-Correlation Functional.
Spin-Paired Calculation
Total Charge:      0.000000
Fermi Temperature: 0.100000
Mode: Finite-difference
Eigensolver:       rmm-diis
                   (3 nearest neighbors central finite-difference stencil)
Poisson Solver:    Jacobi 
                   (3 nearest neighbors central finite-difference stencil)
Interpolation:     6th Order
Reference Energy:  -44951.112957

Total number of cores used: 1
Diagonalizer layout: Serial LAPACK
Orthonormalizer layout: Serial LAPACK

Symmetries present: 48
10 k-points in the Irreducible Part of the Brillouin Zone (total: 64)
Linear Mixing Parameter:           0.1
Pulay Mixing with 3 Old Densities
Damping of Long Wave Oscillations: 50

Convergence Criteria:
Total Energy Change per Atom:           0.001 eV / atom
Integral of Absolute Density Change:    0.0001 electrons
Integral of Absolute Eigenstate Change: 1e-09
Number of Bands in Calculation:         15
Bands to Converge:                      Occupied States Only
Number of Valence Electrons:            11
                     log10-error:    Total        Iterations:
           Time      WFS    Density  Energy       Fermi  Poisson
iter:   1  01:58:08  +2.3            -3.09834     14     13     
iter:   2  01:58:09  -1.5            -3.47387     3             
iter:   3  01:58:10  -2.0            -3.54143     3             
iter:   4  01:58:11  -1.8   -1.2     -3.07711     8      8      
iter:   5  01:58:13  -1.0   -1.4     -2.46774     14     9      
iter:   6  01:58:14  -2.4   -2.1     -2.48145     4      6      
iter:   7  01:58:15  -2.7   -2.3     -2.47184     4      7      
iter:   8  01:58:16  -3.1   -2.7     -2.47604     3      5      
iter:   9  01:58:17  -3.5   -2.8     -2.47438     3      5      
iter:  10  01:58:19  -3.3   -2.8     -2.48306     3      5      
iter:  11  01:58:20  -3.8   -2.8     -2.48165     2      4      
iter:  12  01:58:21  -4.2   -2.7     -2.47914     2      5      
iter:  13  01:58:22  -4.0   -2.8     -2.48473     3      5      
iter:  14  01:58:23  -4.4   -2.8     -2.48558     2      4      
iter:  15  01:58:25  -3.5   -2.8     -2.47477     3      7      
iter:  16  01:58:26  -4.7   -3.4     -2.47530     2      5      
iter:  17  01:58:27  -4.7   -3.7     -2.47490     2      4      
iter:  18  01:58:28  -5.1   -4.1     -2.47487     2      3      
iter:  19  01:58:29  -5.5   -4.3     -2.47501     2      2      
iter:  20  01:58:31  -5.8   -4.5     -2.47492     2      1      
iter:  21  01:58:32  -6.1   -4.6     -2.47500     2      2      
iter:  22  01:58:33  -6.4   -4.6     -2.47499     2      1      
iter:  23  01:58:34  -6.8   -4.6     -2.47505     2      2      
iter:  24  01:58:35  -7.0   -4.6     -2.47507     1      1      
iter:  25  01:58:37  -7.1   -4.6     -2.47511     2      2      
iter:  26  01:58:38  -7.4   -4.6     -2.47515     2      1      
iter:  27  01:58:39  -7.4   -4.7     -2.47509     2      1      
iter:  28  01:58:40  -7.8   -4.8     -2.47525     2      1      
iter:  29  01:58:41  -8.0   -4.8     -2.47480     2      1      
iter:  30  01:58:43  -7.9   -4.8     -2.47518     2      1      
iter:  31  01:58:44  -8.4   -4.8     -2.47506     1      1      
iter:  32  01:58:45  -8.4   -4.7     -2.47484     2      1      
iter:  33  01:58:46  -8.0   -4.7     -2.47509     2      2      
iter:  34  01:58:47  -8.0   -4.8     -2.47524     2      1      
iter:  35  01:58:49  -7.7   -4.8     -2.47513     2      2      
iter:  36  01:58:50  -8.0   -4.9     -2.47482     2      1      
iter:  37  01:58:51  -7.6   -5.1     -2.47513     2      2      
iter:  38  01:58:52  -8.7   -5.3     -2.47509     1      1      
iter:  39  01:58:53  -8.3   -5.5     -2.47497     2      1      
iter:  40  01:58:54  -9.0   -5.7     -2.47495     2      1      
------------------------------------
Converged After 40 Iterations.

Energy Contributions Relative to Reference Atom:(reference = -44951.11296)
-------------------------
Kinetic:        +36.99250
Potential:      -29.84951
External:        +0.00000
XC:              -9.80170
Entropy (-ST):   -0.03156
Local:           +0.19954
-------------------------
Free Energy:     -2.49073
Zero Kelvin:     -2.47495

Fermi Level: 17.65015


Total Charge:  0.000000 electrons
Dipole Moment: [-0.77876727 -0.77876727 -0.77876727]

Memory estimate
---------------
Calculator  152.30 MiB
    Initial overhead  147.39 MiB
    Density  2.34 MiB
        Arrays  0.10 MiB
        Localized functions  1.93 MiB
        Mixer  0.02 MiB
        Interpolator  0.28 MiB
    Hamiltonian  0.75 MiB
        Arrays  0.07 MiB
        Restrictor  0.16 MiB
        XC 3D grid  0.03 MiB
        Poisson  0.35 MiB
        vbar  0.15 MiB
    Wavefunctions  1.82 MiB
        Arrays psit_nG  1.17 MiB
        Eigensolver  0.16 MiB
        Projectors  0.33 MiB
        Overlap op  0.12 MiB
        Kinetic operator  0.04 MiB

Positions:
  0 Cu    0.0000    0.0000    0.0000

                
                
                
                
       Cu       
                
                
                

Unit Cell:
           Periodic     X           Y           Z      Points  Spacing
  --------------------------------------------------------------------
  1. axis:    yes    0.000000    1.575000    1.575000     8     0.2784
  2. axis:    yes    1.575000    0.000000    1.575000     8     0.2784
  3. axis:    yes    1.575000    1.575000    0.000000     8     0.2784

Cu-setup:
  name   : Copper
  id     : 0f0e166f2a1531348bd10bcfa07bef11
  Z      : 29
  valence: 11
  core   : 18
  charge : 0.0
  file   : /usr/share/gpaw-setups/Cu.LDA.gz
  cutoffs: 1.06(comp), 2.06(filt), 2.43(core), lmax=2
  valence states:
            energy   radius
    4s(1)   -4.857   1.164
    4p(0)   -0.783   1.164
    3d(10)  -5.324   1.058
    *s      22.354   1.164
    *p      26.429   1.164
    *d      21.887   1.058

Using partial waves for Cu as LCAO basis

Using the LDA Exchange-Correlation Functional.
Spin-Paired Calculation
Total Charge:      0.000000
Fermi Temperature: 0.100000
Mode: Finite-difference
Eigensolver:       rmm-diis
                   (3 nearest neighbors central finite-difference stencil)
Poisson Solver:    Jacobi 
                   (3 nearest neighbors central finite-difference stencil)
Interpolation:     6th Order
Reference Energy:  -44951.112957

Total number of cores used: 1
Diagonalizer layout: Serial LAPACK
Orthonormalizer layout: Serial LAPACK

Symmetries present: 48
10 k-points in the Irreducible Part of the Brillouin Zone (total: 64)
Linear Mixing Parameter:           0.1
Pulay Mixing with 3 Old Densities
Damping of Long Wave Oscillations: 50

Convergence Criteria:
Total Energy Change per Atom:           0.001 eV / atom
Integral of Absolute Density Change:    0.0001 electrons
Integral of Absolute Eigenstate Change: 1e-09
Number of Bands in Calculation:         15
Bands to Converge:                      Occupied States Only
Number of Valence Electrons:            11
                     log10-error:    Total        Iterations:
           Time      WFS    Density  Energy       Fermi  Poisson
iter:   1  01:59:04  +2.2            -4.72781     11     13     
iter:   2  01:59:05  -1.7            -5.05308     3             
iter:   3  01:59:06  -2.2            -5.12330     3             
iter:   4  01:59:07  -1.6   -1.2     -4.55640     9      8      
iter:   5  01:59:08  -1.0   -1.4     -3.95308     15     9      
iter:   6  01:59:09  -2.4   -2.0     -4.02461     3      6      
iter:   7  01:59:10  -2.8   -2.3     -4.02157     3      7      
iter:   8  01:59:11  -3.3   -2.9     -4.02568     3      4      
iter:   9  01:59:12  -3.7   -2.9     -4.02693     3      4      
iter:  10  01:59:13  -3.8   -3.0     -4.02898     2      5      
iter:  11  01:59:14  -3.9   -2.8     -4.02799     3      4      
iter:  12  01:59:15  -4.5   -2.8     -4.02815     2      6      
iter:  13  01:59:16  -4.3   -3.1     -4.02834     3      5      
iter:  14  01:59:17  -4.9   -3.5     -4.02852     2      3      
iter:  15  01:59:18  -5.0   -3.6     -4.02856     2      3      
iter:  16  01:59:19  -5.4   -3.7     -4.02851     2      3      
iter:  17  01:59:20  -5.6   -3.8     -4.02861     2      2      
iter:  18  01:59:21  -5.8   -3.8     -4.02859     2      1      
iter:  19  01:59:22  -6.1   -3.8     -4.02840     2      2      
iter:  20  01:59:23  -5.9   -3.8     -4.02843     2      3      
iter:  21  01:59:24  -6.4   -3.8     -4.02850     2      3      
iter:  22  01:59:25  -6.6   -3.9     -4.02842     2      2      
iter:  23  01:59:26  -6.4   -4.0     -4.02834     2      3      
iter:  24  01:59:27  -7.0   -4.4     -4.02864     2      2      
iter:  25  01:59:28  -7.3   -4.6     -4.02832     2      1      
iter:  26  01:59:29  -7.1   -4.7     -4.02837     2      2      
iter:  27  01:59:30  -7.6   -5.1     -4.02858     2      2      
iter:  28  01:59:31  -7.9   -4.9     -4.02826     2      1      
iter:  29  01:59:32  -8.1   -5.4     -4.02852     2      1      
iter:  30  01:59:33  -8.3   -5.2     -4.02842     2      1      
iter:  31  01:59:34  -8.6   -5.5     -4.02840     1      1      
iter:  32  01:59:35  -8.8   -5.6     -4.02851     1      1      
iter:  33  01:59:36  -9.0   -5.6     -4.02853     1      1      
iter:  34  01:59:37  -9.1   -5.7     -4.02850     1      1      
------------------------------------
Converged After 34 Iterations.

Energy Contributions Relative to Reference Atom:(reference = -44951.11296)
-------------------------
Kinetic:        +14.02328
Potential:      -11.43332
External:        +0.00000
XC:              -6.81314
Entropy (-ST):   -0.03739
Local:           +0.21338
-------------------------
Free Energy:     -4.04720
Zero Kelvin:     -4.02850

Fermi Level: 14.33572


Total Charge:  -0.000000 electrons
Dipole Moment: [-0.86231431 -0.86231431 -0.86231431]

Memory estimate
---------------
Calculator  164.30 MiB
    Initial overhead  159.70 MiB
    Density  2.09 MiB
        Arrays  0.10 MiB
        Localized functions  1.68 MiB
        Mixer  0.02 MiB
        Interpolator  0.28 MiB
    Hamiltonian  0.73 MiB
        Arrays  0.07 MiB
        Restrictor  0.16 MiB
        XC 3D grid  0.03 MiB
        Poisson  0.35 MiB
        vbar  0.13 MiB
    Wavefunctions  1.78 MiB
        Arrays psit_nG  1.17 MiB
        Eigensolver  0.16 MiB
        Projectors  0.29 MiB
        Overlap op  0.12 MiB
        Kinetic operator  0.04 MiB

Positions:
  0 Cu    0.0000    0.0000    0.0000

                
                
                
                
       Cu       
                
                
                

Unit Cell:
           Periodic     X           Y           Z      Points  Spacing
  --------------------------------------------------------------------
  1. axis:    yes    0.000000    1.650000    1.650000     8     0.2917
  2. axis:    yes    1.650000    0.000000    1.650000     8     0.2917
  3. axis:    yes    1.650000    1.650000    0.000000     8     0.2917

Cu-setup:
  name   : Copper
  id     : 0f0e166f2a1531348bd10bcfa07bef11
  Z      : 29
  valence: 11
  core   : 18
  charge : 0.0
  file   : /usr/share/gpaw-setups/Cu.LDA.gz
  cutoffs: 1.06(comp), 2.06(filt), 2.43(core), lmax=2
  valence states:
            energy   radius
    4s(1)   -4.857   1.164
    4p(0)   -0.783   1.164
    3d(10)  -5.324   1.058
    *s      22.354   1.164
    *p      26.429   1.164
    *d      21.887   1.058

Using partial waves for Cu as LCAO basis

Using the LDA Exchange-Correlation Functional.
Spin-Paired Calculation
Total Charge:      0.000000
Fermi Temperature: 0.100000
Mode: Finite-difference
Eigensolver:       rmm-diis
                   (3 nearest neighbors central finite-difference stencil)
Poisson Solver:    Jacobi 
                   (3 nearest neighbors central finite-difference stencil)
Interpolation:     6th Order
Reference Energy:  -44951.112957

Total number of cores used: 1
Diagonalizer layout: Serial LAPACK
Orthonormalizer layout: Serial LAPACK

Symmetries present: 48
10 k-points in the Irreducible Part of the Brillouin Zone (total: 64)
Linear Mixing Parameter:           0.1
Pulay Mixing with 3 Old Densities
Damping of Long Wave Oscillations: 50

Convergence Criteria:
Total Energy Change per Atom:           0.001 eV / atom
Integral of Absolute Density Change:    0.0001 electrons
Integral of Absolute Eigenstate Change: 1e-09
Number of Bands in Calculation:         15
Bands to Converge:                      Occupied States Only
Number of Valence Electrons:            11
                     log10-error:    Total        Iterations:
           Time      WFS    Density  Energy       Fermi  Poisson
iter:   1  01:59:45  +2.1            -5.65691     9      13     
iter:   2  01:59:46  -1.8            -5.93890     3             
iter:   3  01:59:47  -2.3            -6.01485     2             
iter:   4  01:59:48  -1.6   -1.2     -5.36541     10     8      
iter:   5  01:59:49  -1.0   -1.4     -4.80382     14     9      
iter:   6  01:59:50  -2.4   -1.9     -4.90592     4      6      
iter:   7  01:59:50  -3.0   -2.3     -4.90951     3      6      
iter:   8  01:59:51  -3.4   -3.0     -4.91347     3      4      
iter:   9  01:59:52  -3.8   -3.0     -4.91499     2      4      
iter:  10  01:59:53  -4.1   -3.0     -4.91605     2      4      
iter:  11  01:59:54  -4.5   -2.8     -4.91599     2      4      
iter:  12  01:59:55  -4.5   -2.9     -4.91599     3      4      
iter:  13  01:59:56  -4.5   -3.0     -4.91622     3      4      
iter:  14  01:59:57  -5.1   -3.1     -4.91653     2      3      
iter:  15  01:59:58  -5.2   -3.1     -4.91653     2      3      
iter:  16  01:59:59  -5.1   -3.2     -4.91630     3      4      
iter:  17  02:00:00  -5.8   -3.4     -4.91627     2      3      
iter:  18  02:00:01  -6.0   -3.6     -4.91626     2      4      
iter:  19  02:00:02  -6.2   -3.9     -4.91640     2      2      
iter:  20  02:00:03  -6.3   -4.0     -4.91610     2      2      
iter:  21  02:00:04  -6.7   -4.2     -4.91632     1      1      
iter:  22  02:00:05  -6.9   -4.3     -4.91620     2      1      
iter:  23  02:00:06  -6.9   -4.4     -4.91618     2      2      
iter:  24  02:00:06  -7.4   -5.0     -4.91617     2      1      
iter:  25  02:00:07  -7.6   -5.2     -4.91629     1      1      
iter:  26  02:00:08  -7.8   -5.3     -4.91638     2      1      
iter:  27  02:00:09  -8.0   -5.3     -4.91635     1      1      
iter:  28  02:00:10  -8.2   -5.2     -4.91636     1      1      
iter:  29  02:00:11  -8.3   -5.2     -4.91628     2      1      
iter:  30  02:00:12  -8.5   -5.3     -4.91635     2      1      
iter:  31  02:00:13  -8.7   -5.3     -4.91636     1      1      
iter:  32  02:00:14  -8.8   -5.2     -4.91629     2      1      
iter:  33  02:00:15  -9.1   -5.4     -4.91623     2      1      
------------------------------------
Converged After 33 Iterations.

Energy Contributions Relative to Reference Atom:(reference = -44951.11296)
-------------------------
Kinetic:         -0.81926
Potential:       +0.32238
External:        +0.00000
XC:              -4.63914
Entropy (-ST):   -0.03830
Local:           +0.23895
-------------------------
Free Energy:     -4.93538
Zero Kelvin:     -4.91623

Fermi Level: 11.66930


Total Charge:  0.000000 electrons
Dipole Moment: [-0.94814859 -0.94814859 -0.94814859]

Memory estimate
---------------
Calculator  172.44 MiB
    Initial overhead  168.11 MiB
    Density  1.88 MiB
        Arrays  0.10 MiB
        Localized functions  1.47 MiB
        Mixer  0.02 MiB
        Interpolator  0.28 MiB
    Hamiltonian  0.71 MiB
        Arrays  0.07 MiB
        Restrictor  0.16 MiB
        XC 3D grid  0.03 MiB
        Poisson  0.35 MiB
        vbar  0.11 MiB
    Wavefunctions  1.74 MiB
        Arrays psit_nG  1.17 MiB
        Eigensolver  0.16 MiB
        Projectors  0.25 MiB
        Overlap op  0.12 MiB
        Kinetic operator  0.04 MiB

Positions:
  0 Cu    0.0000    0.0000    0.0000

                
                
                
                
       Cu       
                
                
                

Unit Cell:
           Periodic     X           Y           Z      Points  Spacing
  --------------------------------------------------------------------
  1. axis:    yes    0.000000    1.725000    1.725000     8     0.3049
  2. axis:    yes    1.725000    0.000000    1.725000     8     0.3049
  3. axis:    yes    1.725000    1.725000    0.000000     8     0.3049

Cu-setup:
  name   : Copper
  id     : 0f0e166f2a1531348bd10bcfa07bef11
  Z      : 29
  valence: 11
  core   : 18
  charge : 0.0
  file   : /usr/share/gpaw-setups/Cu.LDA.gz
  cutoffs: 1.06(comp), 2.06(filt), 2.43(core), lmax=2
  valence states:
            energy   radius
    4s(1)   -4.857   1.164
    4p(0)   -0.783   1.164
    3d(10)  -5.324   1.058
    *s      22.354   1.164
    *p      26.429   1.164
    *d      21.887   1.058

Using partial waves for Cu as LCAO basis

Using the LDA Exchange-Correlation Functional.
Spin-Paired Calculation
Total Charge:      0.000000
Fermi Temperature: 0.100000
Mode: Finite-difference
Eigensolver:       rmm-diis
                   (3 nearest neighbors central finite-difference stencil)
Poisson Solver:    Jacobi 
                   (3 nearest neighbors central finite-difference stencil)
Interpolation:     6th Order
Reference Energy:  -44951.112957

Total number of cores used: 1
Diagonalizer layout: Serial LAPACK
Orthonormalizer layout: Serial LAPACK

Symmetries present: 48
10 k-points in the Irreducible Part of the Brillouin Zone (total: 64)
Linear Mixing Parameter:           0.1
Pulay Mixing with 3 Old Densities
Damping of Long Wave Oscillations: 50

Convergence Criteria:
Total Energy Change per Atom:           0.001 eV / atom
Integral of Absolute Density Change:    0.0001 electrons
Integral of Absolute Eigenstate Change: 1e-09
Number of Bands in Calculation:         15
Bands to Converge:                      Occupied States Only
Number of Valence Electrons:            11
                     log10-error:    Total        Iterations:
           Time      WFS    Density  Energy       Fermi  Poisson
iter:   1  02:00:21  +1.9            -6.03181     8      13     
iter:   2  02:00:22  -2.0            -6.29709     3             
iter:   3  02:00:23  -2.4            -6.38281     2             
iter:   4  02:00:24  -1.5   -1.2     -5.68314     10     8      
iter:   5  02:00:25  -1.1   -1.4     -5.19196     13     9      
iter:   6  02:00:26  -2.5   -1.9     -5.30324     3      6      
iter:   7  02:00:26  -3.0   -2.3     -5.31370     3      6      
iter:   8  02:00:27  -3.5   -3.0     -5.31807     3      3      
iter:   9  02:00:28  -3.7   -2.9     -5.32115     3      5      
iter:  10  02:00:29  -4.1   -2.6     -5.32073     3      5      
iter:  11  02:00:30  -4.3   -2.8     -5.32069     3      4      
iter:  12  02:00:31  -4.5   -2.8     -5.32061     3      5      
iter:  13  02:00:32  -5.1   -3.0     -5.32083     2      3      
iter:  14  02:00:32  -5.3   -3.0     -5.32083     2      4      
iter:  15  02:00:33  -5.6   -3.3     -5.32086     2      4      
iter:  16  02:00:34  -5.7   -3.4     -5.32096     2      3      
iter:  17  02:00:35  -5.9   -4.1     -5.32102     2      2      
iter:  18  02:00:36  -6.1   -4.6     -5.32093     1      1      
iter:  19  02:00:37  -6.4   -4.5     -5.32077     2      1      
iter:  20  02:00:38  -6.6   -4.4     -5.32090     2      1      
iter:  21  02:00:39  -6.8   -4.3     -5.32089     1      1      
iter:  22  02:00:39  -7.0   -4.3     -5.32091     2      1      
iter:  23  02:00:40  -7.2   -4.3     -5.32101     2      1      
iter:  24  02:00:41  -7.2   -4.3     -5.32078     2      2      
iter:  25  02:00:42  -7.5   -4.3     -5.32087     2      2      
iter:  26  02:00:43  -7.6   -4.2     -5.32101     1      2      
iter:  27  02:00:44  -7.8   -4.3     -5.32088     2      1      
iter:  28  02:00:45  -8.0   -4.3     -5.32081     1      3      
iter:  29  02:00:45  -8.3   -4.5     -5.32108     1      2      
iter:  30  02:00:46  -8.4   -4.6     -5.32082     2      1      
iter:  31  02:00:47  -8.6   -4.7     -5.32082     2      2      
iter:  32  02:00:48  -9.0   -4.8     -5.32090     1      1      
------------------------------------
Converged After 32 Iterations.

Energy Contributions Relative to Reference Atom:(reference = -44951.11296)
-------------------------
Kinetic:         -9.43794
Potential:       +6.97154
External:        +0.00000
XC:              -3.09067
Entropy (-ST):   -0.03457
Local:           +0.25345
-------------------------
Free Energy:     -5.33819
Zero Kelvin:     -5.32090

Fermi Level: 9.49968


Total Charge:  0.000000 electrons
Dipole Moment: [-1.03664384 -1.03664384 -1.03664384]

Memory estimate
---------------
Calculator  182.17 MiB
    Initial overhead  169.59 MiB
    Density  4.93 MiB
        Arrays  0.34 MiB
        Localized functions  3.87 MiB
        Mixer  0.08 MiB
        Interpolator  0.64 MiB
    Hamiltonian  2.02 MiB
        Arrays  0.22 MiB
        Restrictor  0.37 MiB
        XC 3D grid  0.11 MiB
        Poisson  1.03 MiB
        vbar  0.29 MiB
    Wavefunctions  5.63 MiB
        Arrays psit_nG  3.96 MiB
        Eigensolver  0.53 MiB
        Projectors  0.66 MiB
        Overlap op  0.40 MiB
        Kinetic operator  0.09 MiB

Positions:
  0 Cu    0.0000    0.0000    0.0000

                
                
                
                
       Cu       
                
                
                

Unit Cell:
           Periodic     X           Y           Z      Points  Spacing
  --------------------------------------------------------------------
  1. axis:    yes    0.000000    1.875000    1.875000    12     0.2210
  2. axis:    yes    1.875000    0.000000    1.875000    12     0.2210
  3. axis:    yes    1.875000    1.875000    0.000000    12     0.2210

Cu-setup:
  name   : Copper
  id     : 0f0e166f2a1531348bd10bcfa07bef11
  Z      : 29
  valence: 11
  core   : 18
  charge : 0.0
  file   : /usr/share/gpaw-setups/Cu.LDA.gz
  cutoffs: 1.06(comp), 2.06(filt), 2.43(core), lmax=2
  valence states:
            energy   radius
    4s(1)   -4.857   1.164
    4p(0)   -0.783   1.164
    3d(10)  -5.324   1.058
    *s      22.354   1.164
    *p      26.429   1.164
    *d      21.887   1.058

Using partial waves for Cu as LCAO basis

Using the LDA Exchange-Correlation Functional.
Spin-Paired Calculation
Total Charge:      0.000000
Fermi Temperature: 0.100000
Mode: Finite-difference
Eigensolver:       rmm-diis
                   (3 nearest neighbors central finite-difference stencil)
Poisson Solver:    Jacobi 
                   (3 nearest neighbors central finite-difference stencil)
Interpolation:     6th Order
Reference Energy:  -44951.112957

Total number of cores used: 1
Diagonalizer layout: Serial LAPACK
Orthonormalizer layout: Serial LAPACK

Symmetries present: 48
10 k-points in the Irreducible Part of the Brillouin Zone (total: 64)
Linear Mixing Parameter:           0.1
Pulay Mixing with 3 Old Densities
Damping of Long Wave Oscillations: 50

Convergence Criteria:
Total Energy Change per Atom:           0.001 eV / atom
Integral of Absolute Density Change:    0.0001 electrons
Integral of Absolute Eigenstate Change: 1e-09
Number of Bands in Calculation:         15
Bands to Converge:                      Occupied States Only
Number of Valence Electrons:            11
                     log10-error:    Total        Iterations:
           Time      WFS    Density  Energy       Fermi  Poisson
iter:   1  02:00:59  +2.6            -5.25107     6      12     
iter:   2  02:01:01  -1.6            -5.49775     3             
iter:   3  02:01:03  -2.1            -5.58306     2             
iter:   4  02:01:05  -1.1   -1.2     -4.86047     10     7      
iter:   5  02:01:07  -0.9   -1.4     -4.54800     11     7      
iter:   6  02:01:09  -2.1   -1.8     -4.62949     3      6      
iter:   7  02:01:11  -2.6   -2.3     -4.64335     4      5      
iter:   8  02:01:13  -3.2   -2.9     -4.64504     3      4      
iter:   9  02:01:14  -3.8   -3.1     -4.64584     2      4      
iter:  10  02:01:16  -4.3   -2.9     -4.64631     3      4      
iter:  11  02:01:18  -4.6   -3.1     -4.64642     2      2      
iter:  12  02:01:20  -4.8   -3.1     -4.64644     3      3      
iter:  13  02:01:22  -4.7   -3.2     -4.64639     3      4      
iter:  14  02:01:24  -4.9   -3.5     -4.64657     3      3      
iter:  15  02:01:26  -5.2   -3.6     -4.64644     3      3      
iter:  16  02:01:28  -5.6   -3.6     -4.64648     2      2      
iter:  17  02:01:30  -5.7   -3.7     -4.64646     2      3      
iter:  18  02:01:32  -6.0   -3.8     -4.64647     2      3      
iter:  19  02:01:34  -6.1   -3.8     -4.64645     2      3      
iter:  20  02:01:35  -6.4   -4.4     -4.64625     2      1      
iter:  21  02:01:37  -6.6   -4.6     -4.64644     2      2      
iter:  22  02:01:39  -6.8   -4.9     -4.64644     2      1      
iter:  23  02:01:41  -7.0   -4.9     -4.64646     1      1      
iter:  24  02:01:43  -7.2   -4.8     -4.64643     2      1      
iter:  25  02:01:45  -7.4   -5.0     -4.64643     1      1      
iter:  26  02:01:47  -7.6   -5.1     -4.64647     2      1      
iter:  27  02:01:49  -7.8   -5.1     -4.64645     2      1      
iter:  28  02:01:51  -8.1   -5.2     -4.64647     1      1      
iter:  29  02:01:52  -8.2   -5.2     -4.64645     1      1      
iter:  30  02:01:54  -8.5   -5.2     -4.64643     1      1      
iter:  31  02:01:56  -8.5   -5.3     -4.64634     2      1      
iter:  32  02:01:58  -8.7   -5.7     -4.64648     2      1      
iter:  33  02:02:00  -9.0   -5.6     -4.64647     1      1      
------------------------------------
Converged After 33 Iterations.

Energy Contributions Relative to Reference Atom:(reference = -44951.11296)
-------------------------
Kinetic:        -16.30683
Potential:      +12.70659
External:        +0.00000
XC:              -1.12044
Entropy (-ST):   -0.02439
Local:           +0.08641
-------------------------
Free Energy:     -4.65866
Zero Kelvin:     -4.64647

Fermi Level: 6.21640


Total Charge:  -0.000000 electrons
Dipole Moment: [-0.81540345 -0.81540345 -0.81540345]

Memory estimate
---------------
Calculator  222.83 MiB
    Initial overhead  209.62 MiB
    Density  5.43 MiB
        Arrays  0.34 MiB
        Localized functions  4.37 MiB
        Mixer  0.08 MiB
        Interpolator  0.64 MiB
    Hamiltonian  2.06 MiB
        Arrays  0.22 MiB
        Restrictor  0.37 MiB
        XC 3D grid  0.11 MiB
        Poisson  1.03 MiB
        vbar  0.33 MiB
    Wavefunctions  5.71 MiB
        Arrays psit_nG  3.96 MiB
        Eigensolver  0.53 MiB
        Projectors  0.74 MiB
        Overlap op  0.40 MiB
        Kinetic operator  0.09 MiB

Positions:
  0 Cu    0.0000    0.0000    0.0000

                
                
                
                
       Cu       
                
                
                

Unit Cell:
           Periodic     X           Y           Z      Points  Spacing
  --------------------------------------------------------------------
  1. axis:    yes    0.000000    1.800000    1.800000    12     0.2121
  2. axis:    yes    1.800000    0.000000    1.800000    12     0.2121
  3. axis:    yes    1.800000    1.800000    0.000000    12     0.2121

Cu-setup:
  name   : Copper
  id     : 0f0e166f2a1531348bd10bcfa07bef11
  Z      : 29
  valence: 11
  core   : 18
  charge : 0.0
  file   : /usr/share/gpaw-setups/Cu.LDA.gz
  cutoffs: 1.06(comp), 2.06(filt), 2.43(core), lmax=2
  valence states:
            energy   radius
    4s(1)   -4.857   1.164
    4p(0)   -0.783   1.164
    3d(10)  -5.324   1.058
    *s      22.354   1.164
    *p      26.429   1.164
    *d      21.887   1.058

Using partial waves for Cu as LCAO basis

Using the LDA Exchange-Correlation Functional.
Spin-Paired Calculation
Total Charge:      0.000000
Fermi Temperature: 0.100000
Mode: Finite-difference
Eigensolver:       rmm-diis
                   (3 nearest neighbors central finite-difference stencil)
Poisson Solver:    Jacobi 
                   (3 nearest neighbors central finite-difference stencil)
Interpolation:     6th Order
Reference Energy:  -44951.112957

Total number of cores used: 1
Diagonalizer layout: Serial LAPACK
Orthonormalizer layout: Serial LAPACK

Symmetries present: 48
10 k-points in the Irreducible Part of the Brillouin Zone (total: 64)
Linear Mixing Parameter:           0.1
Pulay Mixing with 3 Old Densities
Damping of Long Wave Oscillations: 50

Convergence Criteria:
Total Energy Change per Atom:           0.001 eV / atom
Integral of Absolute Density Change:    0.0001 electrons
Integral of Absolute Eigenstate Change: 1e-09
Number of Bands in Calculation:         15
Bands to Converge:                      Occupied States Only
Number of Valence Electrons:            11
                     log10-error:    Total        Iterations:
           Time      WFS    Density  Energy       Fermi  Poisson
iter:   1  02:02:13  +2.7            -5.38432     7      12     
iter:   2  02:02:15  -1.5            -5.66971     3             
iter:   3  02:02:17  -2.0            -5.76586     2             
iter:   4  02:02:19  -1.0   -1.2     -5.03138     10     7      
iter:   5  02:02:21  -0.7   -1.4     -4.62457     12     7      
iter:   6  02:02:23  -2.1   -1.8     -4.72525     3      6      
iter:   7  02:02:26  -2.4   -2.4     -4.73838     3      5      
iter:   8  02:02:28  -3.4   -3.0     -4.74168     2      3      
iter:   9  02:02:30  -3.6   -3.0     -4.74262     2      3      
iter:  10  02:02:32  -4.1   -3.0     -4.74325     3      4      
iter:  11  02:02:34  -4.4   -2.8     -4.74324     2      4      
iter:  12  02:02:36  -4.4   -3.0     -4.74315     3      4      
iter:  13  02:02:38  -5.0   -3.0     -4.74330     2      3      
iter:  14  02:02:40  -5.2   -3.1     -4.74330     2      4      
iter:  15  02:02:42  -5.0   -3.2     -4.74337     2      3      
iter:  16  02:02:44  -5.2   -3.7     -4.74330     2      3      
iter:  17  02:02:46  -5.5   -3.8     -4.74317     2      2      
iter:  18  02:02:48  -5.7   -3.9     -4.74315     2      2      
iter:  19  02:02:51  -5.9   -3.9     -4.74321     2      3      
iter:  20  02:02:53  -6.1   -4.3     -4.74307     2      2      
iter:  21  02:02:55  -6.4   -4.6     -4.74318     2      2      
iter:  22  02:02:57  -6.6   -4.6     -4.74343     2      1      
iter:  23  02:02:59  -6.8   -4.6     -4.74307     2      1      
iter:  24  02:03:01  -7.0   -4.4     -4.74351     2      1      
iter:  25  02:03:03  -7.2   -4.5     -4.74340     1      1      
iter:  26  02:03:05  -7.3   -4.5     -4.74316     2      1      
iter:  27  02:03:07  -7.5   -4.7     -4.74315     2      1      
iter:  28  02:03:09  -7.7   -4.8     -4.74324     1      1      
iter:  29  02:03:11  -7.9   -5.0     -4.74328     1      1      
iter:  30  02:03:13  -8.2   -5.5     -4.74334     1      1      
iter:  31  02:03:15  -8.3   -5.5     -4.74326     1      1      
iter:  32  02:03:17  -8.5   -5.7     -4.74324     1      1      
iter:  33  02:03:19  -8.7   -5.8     -4.74327     1      1      
iter:  34  02:03:21  -8.9   -5.7     -4.74331     1      1      
iter:  35  02:03:24  -9.1   -5.7     -4.74328     1      1      
------------------------------------
Converged After 35 Iterations.

Energy Contributions Relative to Reference Atom:(reference = -44951.11296)
-------------------------
Kinetic:        -13.37195
Potential:      +10.50715
External:        +0.00000
XC:              -1.95286
Entropy (-ST):   -0.02931
Local:           +0.08903
-------------------------
Free Energy:     -4.75793
Zero Kelvin:     -4.74328

Fermi Level: 7.72347


Total Charge:  -0.000000 electrons
Dipole Moment: [-0.75256983 -0.75256983 -0.75256983]

Memory estimate
---------------
Calculator  214.22 MiB
    Initial overhead  209.62 MiB
    Density  2.09 MiB
        Arrays  0.10 MiB
        Localized functions  1.68 MiB
        Mixer  0.02 MiB
        Interpolator  0.28 MiB
    Hamiltonian  0.73 MiB
        Arrays  0.07 MiB
        Restrictor  0.16 MiB
        XC 3D grid  0.03 MiB
        Poisson  0.35 MiB
        vbar  0.13 MiB
    Wavefunctions  1.78 MiB
        Arrays psit_nG  1.17 MiB
        Eigensolver  0.16 MiB
        Projectors  0.29 MiB
        Overlap op  0.12 MiB
        Kinetic operator  0.04 MiB

Positions:
  0 Cu    0.0000    0.0000    0.0000

                
                
                
                
       Cu       
                
                
                

Unit Cell:
           Periodic     X           Y           Z      Points  Spacing
  --------------------------------------------------------------------
  1. axis:    yes    0.000000    1.650000    1.650000     8     0.2917
  2. axis:    yes    1.650000    0.000000    1.650000     8     0.2917
  3. axis:    yes    1.650000    1.650000    0.000000     8     0.2917

Cu-setup:
  name   : Copper
  id     : 0f0e166f2a1531348bd10bcfa07bef11
  Z      : 29
  valence: 11
  core   : 18
  charge : 0.0
  file   : /usr/share/gpaw-setups/Cu.LDA.gz
  cutoffs: 1.06(comp), 2.06(filt), 2.43(core), lmax=2
  valence states:
            energy   radius
    4s(1)   -4.857   1.164
    4p(0)   -0.783   1.164
    3d(10)  -5.324   1.058
    *s      22.354   1.164
    *p      26.429   1.164
    *d      21.887   1.058

Using partial waves for Cu as LCAO basis

Using the LDA Exchange-Correlation Functional.
Spin-Paired Calculation
Total Charge:      0.000000
Fermi Temperature: 0.100000
Mode: Finite-difference
Eigensolver:       rmm-diis
                   (3 nearest neighbors central finite-difference stencil)
Poisson Solver:    Jacobi 
                   (3 nearest neighbors central finite-difference stencil)
Interpolation:     6th Order
Reference Energy:  -44951.112957

Total number of cores used: 1
Diagonalizer layout: Serial LAPACK
Orthonormalizer layout: Serial LAPACK

Symmetries present: 48
10 k-points in the Irreducible Part of the Brillouin Zone (total: 64)
Linear Mixing Parameter:           0.1
Pulay Mixing with 3 Old Densities
Damping of Long Wave Oscillations: 50

Convergence Criteria:
Total Energy Change per Atom:           0.001 eV / atom
Integral of Absolute Density Change:    0.0001 electrons
Integral of Absolute Eigenstate Change: 1e-09
Number of Bands in Calculation:         15
Bands to Converge:                      Occupied States Only
Number of Valence Electrons:            11
                     log10-error:    Total        Iterations:
           Time      WFS    Density  Energy       Fermi  Poisson
iter:   1  02:03:31  +2.1            -5.65691     9      13     
iter:   2  02:03:32  -1.8            -5.93890     3             
iter:   3  02:03:33  -2.3            -6.01485     2             
iter:   4  02:03:34  -1.6   -1.2     -5.36541     10     8      
iter:   5  02:03:35  -1.0   -1.4     -4.80382     14     9      
iter:   6  02:03:36  -2.4   -1.9     -4.90592     4      6      
iter:   7  02:03:37  -3.0   -2.3     -4.90951     3      6      
iter:   8  02:03:38  -3.4   -3.0     -4.91347     3      4      
iter:   9  02:03:39  -3.8   -3.0     -4.91499     2      4      
iter:  10  02:03:40  -4.1   -3.0     -4.91605     2      4      
iter:  11  02:03:40  -4.5   -2.8     -4.91599     2      4      
iter:  12  02:03:41  -4.5   -2.9     -4.91599     3      4      
iter:  13  02:03:42  -4.5   -3.0     -4.91622     3      4      
iter:  14  02:03:43  -5.1   -3.1     -4.91653     2      3      
iter:  15  02:03:44  -5.2   -3.1     -4.91653     2      3      
iter:  16  02:03:45  -5.1   -3.2     -4.91630     3      4      
iter:  17  02:03:46  -5.8   -3.4     -4.91627     2      3      
iter:  18  02:03:47  -6.0   -3.6     -4.91626     2      4      
iter:  19  02:03:48  -6.2   -3.9     -4.91640     2      2      
iter:  20  02:03:49  -6.3   -4.0     -4.91610     2      2      
iter:  21  02:03:50  -6.7   -4.2     -4.91632     1      1      
iter:  22  02:03:51  -6.9   -4.3     -4.91620     2      1      
iter:  23  02:03:52  -6.9   -4.4     -4.91618     2      2      
iter:  24  02:03:53  -7.4   -5.0     -4.91617     2      1      
iter:  25  02:03:54  -7.6   -5.2     -4.91629     1      1      
iter:  26  02:03:55  -7.8   -5.3     -4.91638     2      1      
iter:  27  02:03:55  -8.0   -5.3     -4.91635     1      1      
iter:  28  02:03:56  -8.2   -5.2     -4.91636     1      1      
iter:  29  02:03:57  -8.3   -5.2     -4.91628     2      1      
iter:  30  02:03:58  -8.5   -5.3     -4.91635     2      1      
iter:  31  02:03:59  -8.7   -5.3     -4.91636     1      1      
iter:  32  02:04:00  -8.8   -5.2     -4.91629     2      1      
iter:  33  02:04:01  -9.1   -5.4     -4.91623     2      1      
------------------------------------
Converged After 33 Iterations.

Energy Contributions Relative to Reference Atom:(reference = -44951.11296)
-------------------------
Kinetic:         -0.81926
Potential:       +0.32238
External:        +0.00000
XC:              -4.63914
Entropy (-ST):   -0.03830
Local:           +0.23895
-------------------------
Free Energy:     -4.93538
Zero Kelvin:     -4.91623

Fermi Level: 11.66930


Total Charge:  0.000000 electrons
Dipole Moment: [-0.94814859 -0.94814859 -0.94814859]

Memory estimate
---------------
Calculator  214.08 MiB
    Initial overhead  209.62 MiB
    Density  1.98 MiB
        Arrays  0.10 MiB
        Localized functions  1.57 MiB
        Mixer  0.02 MiB
        Interpolator  0.28 MiB
    Hamiltonian  0.72 MiB
        Arrays  0.07 MiB
        Restrictor  0.16 MiB
        XC 3D grid  0.03 MiB
        Poisson  0.35 MiB
        vbar  0.12 MiB
    Wavefunctions  1.76 MiB
        Arrays psit_nG  1.17 MiB
        Eigensolver  0.16 MiB
        Projectors  0.27 MiB
        Overlap op  0.12 MiB
        Kinetic operator  0.04 MiB

Positions:
  0 Cu    0.0000    0.0000    0.0000

                
                
                
                
       Cu       
                
                
                

Unit Cell:
           Periodic     X           Y           Z      Points  Spacing
  --------------------------------------------------------------------
  1. axis:    yes    0.000000    1.687500    1.687500     8     0.2983
  2. axis:    yes    1.687500    0.000000    1.687500     8     0.2983
  3. axis:    yes    1.687500    1.687500    0.000000     8     0.2983

Cu-setup:
  name   : Copper
  id     : 0f0e166f2a1531348bd10bcfa07bef11
  Z      : 29
  valence: 11
  core   : 18
  charge : 0.0
  file   : /usr/share/gpaw-setups/Cu.LDA.gz
  cutoffs: 1.06(comp), 2.06(filt), 2.43(core), lmax=2
  valence states:
            energy   radius
    4s(1)   -4.857   1.164
    4p(0)   -0.783   1.164
    3d(10)  -5.324   1.058
    *s      22.354   1.164
    *p      26.429   1.164
    *d      21.887   1.058

Using partial waves for Cu as LCAO basis

Using the LDA Exchange-Correlation Functional.
Spin-Paired Calculation
Total Charge:      0.000000
Fermi Temperature: 0.100000
Mode: Finite-difference
Eigensolver:       rmm-diis
                   (3 nearest neighbors central finite-difference stencil)
Poisson Solver:    Jacobi 
                   (3 nearest neighbors central finite-difference stencil)
Interpolation:     6th Order
Reference Energy:  -44951.112957

Total number of cores used: 1
Diagonalizer layout: Serial LAPACK
Orthonormalizer layout: Serial LAPACK

Symmetries present: 48
10 k-points in the Irreducible Part of the Brillouin Zone (total: 64)
Linear Mixing Parameter:           0.1
Pulay Mixing with 3 Old Densities
Damping of Long Wave Oscillations: 50

Convergence Criteria:
Total Energy Change per Atom:           0.001 eV / atom
Integral of Absolute Density Change:    0.0001 electrons
Integral of Absolute Eigenstate Change: 1e-09
Number of Bands in Calculation:         15
Bands to Converge:                      Occupied States Only
Number of Valence Electrons:            11
                     log10-error:    Total        Iterations:
           Time      WFS    Density  Energy       Fermi  Poisson
iter:   1  02:04:08  +2.0            -5.90486     9      13     
iter:   2  02:04:09  -1.9            -6.17421     3             
iter:   3  02:04:10  -2.4            -6.25484     2             
iter:   4  02:04:11  -1.5   -1.2     -5.57536     10     8      
iter:   5  02:04:12  -1.0   -1.4     -5.04319     13     9      
iter:   6  02:04:12  -2.4   -1.9     -5.15539     3      6      
iter:   7  02:04:13  -3.0   -2.3     -5.16252     3      6      
iter:   8  02:04:14  -3.5   -3.0     -5.16664     3      4      
iter:   9  02:04:15  -3.9   -3.0     -5.16833     2      3      
iter:  10  02:04:16  -4.0   -2.9     -5.16976     3      5      
iter:  11  02:04:17  -4.1   -2.6     -5.16896     3      5      
iter:  12  02:04:18  -4.8   -2.9     -5.16915     2      4      
iter:  13  02:04:19  -4.8   -3.0     -5.16925     2      3      
iter:  14  02:04:20  -5.2   -3.0     -5.16935     2      3      
iter:  15  02:04:21  -5.3   -3.1     -5.16944     2      4      
iter:  16  02:04:21  -5.4   -3.6     -5.16938     2      3      
iter:  17  02:04:22  -5.8   -3.7     -5.16943     2      2      
iter:  18  02:04:23  -6.0   -3.8     -5.16930     2      2      
iter:  19  02:04:24  -6.3   -3.8     -5.16930     2      3      
iter:  20  02:04:25  -6.5   -4.3     -5.16936     2      3      
iter:  21  02:04:26  -6.7   -4.5     -5.16935     1      1      
iter:  22  02:04:27  -6.9   -4.5     -5.16939     1      1      
iter:  23  02:04:28  -7.1   -4.5     -5.16939     2      2      
iter:  24  02:04:29  -7.3   -4.6     -5.16937     2      2      
iter:  25  02:04:29  -7.5   -4.7     -5.16927     1      1      
iter:  26  02:04:30  -7.7   -5.0     -5.16939     1      1      
iter:  27  02:04:31  -7.9   -5.2     -5.16941     1      1      
iter:  28  02:04:32  -8.1   -5.3     -5.16944     1      1      
iter:  29  02:04:33  -8.3   -5.6     -5.16948     1      1      
iter:  30  02:04:34  -8.5   -5.5     -5.16943     1      1      
iter:  31  02:04:35  -8.7   -5.6     -5.16942     1      1      
iter:  32  02:04:36  -8.9   -5.8     -5.16946     1      1      
iter:  33  02:04:37  -9.0   -5.7     -5.16943     1      1      
------------------------------------
Converged After 33 Iterations.

Energy Contributions Relative to Reference Atom:(reference = -44951.11296)
-------------------------
Kinetic:         -5.73096
Potential:       +4.13641
External:        +0.00000
XC:              -3.80062
Entropy (-ST):   -0.03683
Local:           +0.24416
-------------------------
Free Energy:     -5.18785
Zero Kelvin:     -5.16943

Fermi Level: 10.53056


Total Charge:  -0.000000 electrons
Dipole Moment: [-0.99207785 -0.99207785 -0.99207785]

Memory estimate
---------------
Calculator  223.18 MiB
    Initial overhead  209.62 MiB
    Density  5.72 MiB
        Arrays  0.34 MiB
        Localized functions  4.66 MiB
        Mixer  0.08 MiB
        Interpolator  0.64 MiB
    Hamiltonian  2.08 MiB
        Arrays  0.22 MiB
        Restrictor  0.37 MiB
        XC 3D grid  0.11 MiB
        Poisson  1.03 MiB
        vbar  0.35 MiB
    Wavefunctions  5.76 MiB
        Arrays psit_nG  3.96 MiB
        Eigensolver  0.53 MiB
        Projectors  0.79 MiB
        Overlap op  0.40 MiB
        Kinetic operator  0.09 MiB

Positions:
  0 Cu    0.0000    0.0000    0.0000

                
                
                
                
       Cu       
                
                
                

Unit Cell:
           Periodic     X           Y           Z      Points  Spacing
  --------------------------------------------------------------------
  1. axis:    yes    0.000000    1.762500    1.762500    12     0.2077
  2. axis:    yes    1.762500    0.000000    1.762500    12     0.2077
  3. axis:    yes    1.762500    1.762500    0.000000    12     0.2077

Cu-setup:
  name   : Copper
  id     : 0f0e166f2a1531348bd10bcfa07bef11
  Z      : 29
  valence: 11
  core   : 18
  charge : 0.0
  file   : /usr/share/gpaw-setups/Cu.LDA.gz
  cutoffs: 1.06(comp), 2.06(filt), 2.43(core), lmax=2
  valence states:
            energy   radius
    4s(1)   -4.857   1.164
    4p(0)   -0.783   1.164
    3d(10)  -5.324   1.058
    *s      22.354   1.164
    *p      26.429   1.164
    *d      21.887   1.058

Using partial waves for Cu as LCAO basis

Using the LDA Exchange-Correlation Functional.
Spin-Paired Calculation
Total Charge:      0.000000
Fermi Temperature: 0.100000
Mode: Finite-difference
Eigensolver:       rmm-diis
                   (3 nearest neighbors central finite-difference stencil)
Poisson Solver:    Jacobi 
                   (3 nearest neighbors central finite-difference stencil)
Interpolation:     6th Order
Reference Energy:  -44951.112957

Total number of cores used: 1
Diagonalizer layout: Serial LAPACK
Orthonormalizer layout: Serial LAPACK

Symmetries present: 48
10 k-points in the Irreducible Part of the Brillouin Zone (total: 64)
Linear Mixing Parameter:           0.1
Pulay Mixing with 3 Old Densities
Damping of Long Wave Oscillations: 50

Convergence Criteria:
Total Energy Change per Atom:           0.001 eV / atom
Integral of Absolute Density Change:    0.0001 electrons
Integral of Absolute Eigenstate Change: 1e-09
Number of Bands in Calculation:         15
Bands to Converge:                      Occupied States Only
Number of Valence Electrons:            11
                     log10-error:    Total        Iterations:
           Time      WFS    Density  Energy       Fermi  Poisson
iter:   1  02:04:51  +2.8            -5.40058     7      12     
iter:   2  02:04:53  -1.4            -5.70113     3             
iter:   3  02:04:55  -2.0            -5.79756     2             
iter:   4  02:04:57  -1.0   -1.2     -5.06932     10     7      
iter:   5  02:04:59  -0.7   -1.4     -4.61970     12     7      
iter:   6  02:05:02  -2.0   -1.9     -4.72460     3      6      
iter:   7  02:05:04  -2.5   -2.3     -4.73441     3      5      
iter:   8  02:05:06  -3.2   -3.1     -4.73771     2      3      
iter:   9  02:05:08  -3.4   -3.0     -4.73872     2      3      
iter:  10  02:05:10  -4.0   -3.0     -4.73967     3      3      
iter:  11  02:05:12  -3.9   -2.9     -4.73932     3      4      
iter:  12  02:05:15  -4.0   -3.0     -4.73940     3      4      
iter:  13  02:05:17  -4.6   -3.2     -4.73962     2      4      
iter:  14  02:05:19  -4.8   -3.3     -4.73961     2      3      
iter:  15  02:05:21  -4.8   -3.3     -4.73961     2      4      
iter:  16  02:05:23  -5.2   -3.5     -4.73979     2      2      
iter:  17  02:05:25  -5.3   -3.5     -4.73964     2      2      
iter:  18  02:05:28  -5.7   -3.5     -4.73964     2      2      
iter:  19  02:05:30  -5.8   -3.6     -4.73946     2      2      
iter:  20  02:05:32  -5.7   -3.7     -4.73948     2      3      
iter:  21  02:05:34  -6.3   -4.2     -4.73962     2      2      
iter:  22  02:05:36  -6.6   -4.7     -4.73971     2      1      
iter:  23  02:05:38  -6.9   -4.6     -4.73962     1      1      
iter:  24  02:05:41  -7.0   -4.6     -4.73971     2      2      
iter:  25  02:05:43  -7.2   -4.3     -4.73963     2      2      
iter:  26  02:05:45  -7.5   -4.4     -4.73952     2      2      
iter:  27  02:05:47  -7.6   -4.6     -4.73955     2      1      
iter:  28  02:05:49  -7.9   -4.8     -4.73965     1      1      
iter:  29  02:05:51  -7.7   -4.9     -4.73979     2      1      
iter:  30  02:05:53  -8.3   -4.9     -4.73965     1      1      
iter:  31  02:05:56  -8.4   -5.0     -4.73960     2      1      
iter:  32  02:05:58  -8.6   -5.2     -4.73961     2      1      
iter:  33  02:06:00  -8.8   -5.3     -4.73962     1      1      
iter:  34  02:06:02  -9.0   -5.4     -4.73963     1      1      
------------------------------------
Converged After 34 Iterations.

Energy Contributions Relative to Reference Atom:(reference = -44951.11296)
-------------------------
Kinetic:        -11.06065
Potential:       +8.72886
External:        +0.00000
XC:              -2.48114
Entropy (-ST):   -0.03209
Local:           +0.08934
-------------------------
Free Energy:     -4.75568
Zero Kelvin:     -4.73963

Fermi Level: 8.58210


Total Charge:  -0.000000 electrons
Dipole Moment: [-0.72189733 -0.72189733 -0.72189733]

Memory estimate
---------------
Calculator  214.02 MiB
    Initial overhead  209.62 MiB
    Density  1.93 MiB
        Arrays  0.10 MiB
        Localized functions  1.52 MiB
        Mixer  0.02 MiB
        Interpolator  0.28 MiB
    Hamiltonian  0.72 MiB
        Arrays  0.07 MiB
        Restrictor  0.16 MiB
        XC 3D grid  0.03 MiB
        Poisson  0.35 MiB
        vbar  0.11 MiB
    Wavefunctions  1.75 MiB
        Arrays psit_nG  1.17 MiB
        Eigensolver  0.16 MiB
        Projectors  0.26 MiB
        Overlap op  0.12 MiB
        Kinetic operator  0.04 MiB

Positions:
  0 Cu    0.0000    0.0000    0.0000

                
                
                
                
       Cu       
                
                
                

Unit Cell:
           Periodic     X           Y           Z      Points  Spacing
  --------------------------------------------------------------------
  1. axis:    yes    0.000000    1.706250    1.706250     8     0.3016
  2. axis:    yes    1.706250    0.000000    1.706250     8     0.3016
  3. axis:    yes    1.706250    1.706250    0.000000     8     0.3016

Cu-setup:
  name   : Copper
  id     : 0f0e166f2a1531348bd10bcfa07bef11
  Z      : 29
  valence: 11
  core   : 18
  charge : 0.0
  file   : /usr/share/gpaw-setups/Cu.LDA.gz
  cutoffs: 1.06(comp), 2.06(filt), 2.43(core), lmax=2
  valence states:
            energy   radius
    4s(1)   -4.857   1.164
    4p(0)   -0.783   1.164
    3d(10)  -5.324   1.058
    *s      22.354   1.164
    *p      26.429   1.164
    *d      21.887   1.058

Using partial waves for Cu as LCAO basis

Using the LDA Exchange-Correlation Functional.
Spin-Paired Calculation
Total Charge:      0.000000
Fermi Temperature: 0.100000
Mode: Finite-difference
Eigensolver:       rmm-diis
                   (3 nearest neighbors central finite-difference stencil)
Poisson Solver:    Jacobi 
                   (3 nearest neighbors central finite-difference stencil)
Interpolation:     6th Order
Reference Energy:  -44951.112957

Total number of cores used: 1
Diagonalizer layout: Serial LAPACK
Orthonormalizer layout: Serial LAPACK

Symmetries present: 48
10 k-points in the Irreducible Part of the Brillouin Zone (total: 64)
Linear Mixing Parameter:           0.1
Pulay Mixing with 3 Old Densities
Damping of Long Wave Oscillations: 50

Convergence Criteria:
Total Energy Change per Atom:           0.001 eV / atom
Integral of Absolute Density Change:    0.0001 electrons
Integral of Absolute Eigenstate Change: 1e-09
Number of Bands in Calculation:         15
Bands to Converge:                      Occupied States Only
Number of Valence Electrons:            11
                     log10-error:    Total        Iterations:
           Time      WFS    Density  Energy       Fermi  Poisson
iter:   1  02:06:09  +2.0            -5.97724     8      13     
iter:   2  02:06:10  -1.9            -6.24506     3             
iter:   3  02:06:10  -2.4            -6.32839     2             
iter:   4  02:06:11  -1.5   -1.2     -5.63755     10     8      
iter:   5  02:06:12  -1.1   -1.4     -5.12485     14     9      
iter:   6  02:06:13  -2.4   -1.9     -5.23796     3      6      
iter:   7  02:06:14  -3.0   -2.3     -5.24659     3      6      
iter:   8  02:06:15  -3.5   -3.0     -5.25073     2      3      
iter:   9  02:06:16  -3.9   -3.0     -5.25298     3      4      
iter:  10  02:06:16  -4.2   -2.8     -5.25324     2      4      
iter:  11  02:06:17  -4.5   -2.8     -5.25359     2      4      
iter:  12  02:06:18  -4.2   -2.8     -5.25321     3      5      
iter:  13  02:06:19  -5.0   -3.0     -5.25354     3      4      
iter:  14  02:06:20  -5.3   -3.0     -5.25352     2      4      
iter:  15  02:06:21  -5.5   -3.2     -5.25355     2      4      
iter:  16  02:06:22  -5.6   -3.4     -5.25354     2      3      
iter:  17  02:06:22  -5.7   -3.6     -5.25359     2      3      
iter:  18  02:06:23  -5.9   -3.9     -5.25381     2      2      
iter:  19  02:06:24  -6.2   -4.1     -5.25366     2      2      
iter:  20  02:06:25  -6.4   -4.1     -5.25361     2      2      
iter:  21  02:06:26  -6.6   -4.3     -5.25355     2      1      
iter:  22  02:06:27  -6.8   -4.4     -5.25359     2      1      
iter:  23  02:06:28  -7.0   -4.4     -5.25356     2      1      
iter:  24  02:06:29  -7.2   -4.4     -5.25361     2      1      
iter:  25  02:06:29  -7.4   -4.4     -5.25363     2      1      
iter:  26  02:06:30  -7.6   -4.4     -5.25342     2      1      
iter:  27  02:06:31  -7.7   -4.4     -5.25349     2      2      
iter:  28  02:06:32  -8.0   -4.5     -5.25352     2      1      
iter:  29  02:06:33  -8.1   -4.5     -5.25340     2      1      
iter:  30  02:06:34  -8.3   -4.7     -5.25341     2      1      
iter:  31  02:06:35  -8.6   -4.8     -5.25352     1      2      
iter:  32  02:06:35  -8.9   -5.1     -5.25364     1      1      
iter:  33  02:06:36  -9.0   -5.1     -5.25361     2      1      
iter:  34  02:06:37  -8.9   -5.2     -5.25352     2      1      
iter:  35  02:06:38  -9.5   -5.5     -5.25355     1      1      
------------------------------------
Converged After 35 Iterations.

Energy Contributions Relative to Reference Atom:(reference = -44951.11296)
-------------------------
Kinetic:         -7.70411
Potential:       +5.65114
External:        +0.00000
XC:              -3.43116
Entropy (-ST):   -0.03577
Local:           +0.24848
-------------------------
Free Energy:     -5.27143
Zero Kelvin:     -5.25355

Fermi Level: 10.00271


Total Charge:  -0.000000 electrons
Dipole Moment: [-1.01428368 -1.01428368 -1.01428368]

Memory estimate
---------------
Calculator  223.37 MiB
    Initial overhead  209.62 MiB
    Density  5.87 MiB
        Arrays  0.34 MiB
        Localized functions  4.81 MiB
        Mixer  0.08 MiB
        Interpolator  0.64 MiB
    Hamiltonian  2.10 MiB
        Arrays  0.22 MiB
        Restrictor  0.37 MiB
        XC 3D grid  0.11 MiB
        Poisson  1.03 MiB
        vbar  0.36 MiB
    Wavefunctions  5.79 MiB
        Arrays psit_nG  3.96 MiB
        Eigensolver  0.53 MiB
        Projectors  0.81 MiB
        Overlap op  0.40 MiB
        Kinetic operator  0.09 MiB

Positions:
  0 Cu    0.0000    0.0000    0.0000

                
                
                
                
       Cu       
                
                
                

Unit Cell:
           Periodic     X           Y           Z      Points  Spacing
  --------------------------------------------------------------------
  1. axis:    yes    0.000000    1.743750    1.743750    12     0.2055
  2. axis:    yes    1.743750    0.000000    1.743750    12     0.2055
  3. axis:    yes    1.743750    1.743750    0.000000    12     0.2055

Cu-setup:
  name   : Copper
  id     : 0f0e166f2a1531348bd10bcfa07bef11
  Z      : 29
  valence: 11
  core   : 18
  charge : 0.0
  file   : /usr/share/gpaw-setups/Cu.LDA.gz
  cutoffs: 1.06(comp), 2.06(filt), 2.43(core), lmax=2
  valence states:
            energy   radius
    4s(1)   -4.857   1.164
    4p(0)   -0.783   1.164
    3d(10)  -5.324   1.058
    *s      22.354   1.164
    *p      26.429   1.164
    *d      21.887   1.058

Using partial waves for Cu as LCAO basis

Using the LDA Exchange-Correlation Functional.
Spin-Paired Calculation
Total Charge:      0.000000
Fermi Temperature: 0.100000
Mode: Finite-difference
Eigensolver:       rmm-diis
                   (3 nearest neighbors central finite-difference stencil)
Poisson Solver:    Jacobi 
                   (3 nearest neighbors central finite-difference stencil)
Interpolation:     6th Order
Reference Energy:  -44951.112957

Total number of cores used: 1
Diagonalizer layout: Serial LAPACK
Orthonormalizer layout: Serial LAPACK

Symmetries present: 48
10 k-points in the Irreducible Part of the Brillouin Zone (total: 64)
Linear Mixing Parameter:           0.1
Pulay Mixing with 3 Old Densities
Damping of Long Wave Oscillations: 50

Convergence Criteria:
Total Energy Change per Atom:           0.001 eV / atom
Integral of Absolute Density Change:    0.0001 electrons
Integral of Absolute Eigenstate Change: 1e-09
Number of Bands in Calculation:         15
Bands to Converge:                      Occupied States Only
Number of Valence Electrons:            11
                     log10-error:    Total        Iterations:
           Time      WFS    Density  Energy       Fermi  Poisson
iter:   1  02:06:53  +2.8            -5.39183     8      11     
iter:   2  02:06:55  -1.4            -5.69926     3             
iter:   3  02:06:57  -2.0            -5.79443     2             
iter:   4  02:07:00  -1.0   -1.2     -5.07231     11     7      
iter:   5  02:07:02  -0.6   -1.4     -4.60247     13     7      
iter:   6  02:07:04  -2.0   -1.9     -4.70829     3      6      
iter:   7  02:07:06  -2.5   -2.2     -4.71627     3      5      
iter:   8  02:07:09  -3.2   -3.1     -4.71938     2      3      
iter:   9  02:07:11  -3.5   -3.0     -4.72048     2      3      
iter:  10  02:07:13  -4.0   -3.0     -4.72109     2      3      
iter:  11  02:07:15  -4.2   -3.0     -4.72130     2      3      
iter:  12  02:07:17  -4.6   -2.9     -4.72126     2      4      
iter:  13  02:07:20  -4.6   -2.9     -4.72160     2      4      
iter:  14  02:07:22  -4.6   -3.0     -4.72152     2      3      
iter:  15  02:07:24  -4.3   -3.0     -4.72150     3      4      
iter:  16  02:07:26  -5.1   -3.1     -4.72129     2      4      
iter:  17  02:07:29  -5.1   -3.4     -4.72139     2      3      
iter:  18  02:07:31  -5.5   -3.5     -4.72135     2      3      
iter:  19  02:07:33  -5.2   -3.7     -4.72133     2      3      
iter:  20  02:07:35  -5.9   -4.1     -4.72148     2      2      
iter:  21  02:07:37  -6.3   -4.1     -4.72143     2      1      
iter:  22  02:07:40  -6.4   -4.2     -4.72146     2      2      
iter:  23  02:07:42  -6.7   -4.3     -4.72153     2      2      
iter:  24  02:07:44  -6.8   -4.4     -4.72147     2      2      
iter:  25  02:07:46  -7.0   -4.6     -4.72164     2      1      
iter:  26  02:07:49  -7.2   -4.7     -4.72150     2      2      
iter:  27  02:07:51  -7.4   -4.9     -4.72136     1      1      
iter:  28  02:07:53  -7.6   -4.9     -4.72148     2      1      
iter:  29  02:07:55  -7.7   -4.9     -4.72160     1      1      
iter:  30  02:07:57  -8.0   -4.9     -4.72147     2      1      
iter:  31  02:08:00  -8.1   -4.9     -4.72145     1      1      
iter:  32  02:08:02  -8.3   -4.9     -4.72141     1      1      
iter:  33  02:08:04  -8.5   -5.0     -4.72141     1      1      
iter:  34  02:08:06  -8.6   -5.0     -4.72140     2      1      
iter:  35  02:08:08  -8.9   -5.1     -4.72139     1      1      
iter:  36  02:08:11  -9.0   -5.1     -4.72138     1      1      
------------------------------------
Converged After 36 Iterations.

Energy Contributions Relative to Reference Atom:(reference = -44951.11296)
-------------------------
Kinetic:         -9.64007
Potential:       +7.62435
External:        +0.00000
XC:              -2.77853
Entropy (-ST):   -0.03347
Local:           +0.08960
-------------------------
Free Energy:     -4.73811
Zero Kelvin:     -4.72138

Fermi Level: 9.04153


Total Charge:  -0.000000 electrons
Dipole Moment: [-0.7067477 -0.7067477 -0.7067477]

Memory estimate
---------------
Calculator  222.43 MiB
    Initial overhead  218.06 MiB
    Density  1.91 MiB
        Arrays  0.10 MiB
        Localized functions  1.50 MiB
        Mixer  0.02 MiB
        Interpolator  0.28 MiB
    Hamiltonian  0.71 MiB
        Arrays  0.07 MiB
        Restrictor  0.16 MiB
        XC 3D grid  0.03 MiB
        Poisson  0.35 MiB
        vbar  0.11 MiB
    Wavefunctions  1.74 MiB
        Arrays psit_nG  1.17 MiB
        Eigensolver  0.16 MiB
        Projectors  0.25 MiB
        Overlap op  0.12 MiB
        Kinetic operator  0.04 MiB

Positions:
  0 Cu    0.0000    0.0000    0.0000

                
                
                
                
       Cu       
                
                
                

Unit Cell:
           Periodic     X           Y           Z      Points  Spacing
  --------------------------------------------------------------------
  1. axis:    yes    0.000000    1.715625    1.715625     8     0.3033
  2. axis:    yes    1.715625    0.000000    1.715625     8     0.3033
  3. axis:    yes    1.715625    1.715625    0.000000     8     0.3033

Cu-setup:
  name   : Copper
  id     : 0f0e166f2a1531348bd10bcfa07bef11
  Z      : 29
  valence: 11
  core   : 18
  charge : 0.0
  file   : /usr/share/gpaw-setups/Cu.LDA.gz
  cutoffs: 1.06(comp), 2.06(filt), 2.43(core), lmax=2
  valence states:
            energy   radius
    4s(1)   -4.857   1.164
    4p(0)   -0.783   1.164
    3d(10)  -5.324   1.058
    *s      22.354   1.164
    *p      26.429   1.164
    *d      21.887   1.058

Using partial waves for Cu as LCAO basis

Using the LDA Exchange-Correlation Functional.
Spin-Paired Calculation
Total Charge:      0.000000
Fermi Temperature: 0.100000
Mode: Finite-difference
Eigensolver:       rmm-diis
                   (3 nearest neighbors central finite-difference stencil)
Poisson Solver:    Jacobi 
                   (3 nearest neighbors central finite-difference stencil)
Interpolation:     6th Order
Reference Energy:  -44951.112957

Total number of cores used: 1
Diagonalizer layout: Serial LAPACK
Orthonormalizer layout: Serial LAPACK

Symmetries present: 48
10 k-points in the Irreducible Part of the Brillouin Zone (total: 64)
Linear Mixing Parameter:           0.1
Pulay Mixing with 3 Old Densities
Damping of Long Wave Oscillations: 50

Convergence Criteria:
Total Energy Change per Atom:           0.001 eV / atom
Integral of Absolute Density Change:    0.0001 electrons
Integral of Absolute Eigenstate Change: 1e-09
Number of Bands in Calculation:         15
Bands to Converge:                      Occupied States Only
Number of Valence Electrons:            11
                     log10-error:    Total        Iterations:
           Time      WFS    Density  Energy       Fermi  Poisson
iter:   1  02:08:17  +2.0            -6.00572     8      13     
iter:   2  02:08:18  -1.9            -6.27265     3             
iter:   3  02:08:19  -2.4            -6.35738     2             
iter:   4  02:08:20  -1.5   -1.2     -5.66177     10     8      
iter:   5  02:08:20  -1.1   -1.4     -5.15945     13     9      
iter:   6  02:08:21  -2.4   -1.9     -5.27223     3      6      
iter:   7  02:08:22  -3.0   -2.3     -5.28185     3      6      
iter:   8  02:08:23  -3.5   -3.0     -5.28602     3      3      
iter:   9  02:08:24  -3.9   -2.9     -5.28830     3      4      
iter:  10  02:08:25  -4.2   -2.8     -5.28851     3      4      
iter:  11  02:08:26  -4.5   -2.8     -5.28895     2      4      
iter:  12  02:08:27  -4.3   -2.7     -5.28851     3      5      
iter:  13  02:08:27  -5.2   -3.0     -5.28891     2      3      
iter:  14  02:08:28  -4.9   -3.0     -5.28879     3      5      
iter:  15  02:08:29  -5.4   -3.4     -5.28880     2      3      
iter:  16  02:08:30  -5.7   -3.7     -5.28898     2      2      
iter:  17  02:08:31  -5.9   -3.8     -5.28875     2      1      
iter:  18  02:08:32  -6.1   -3.8     -5.28876     2      2      
iter:  19  02:08:33  -6.4   -3.8     -5.28866     2      1      
iter:  20  02:08:33  -6.2   -3.8     -5.28878     2      3      
iter:  21  02:08:34  -6.8   -4.0     -5.28876     2      1      
iter:  22  02:08:35  -6.8   -4.0     -5.28871     2      2      
iter:  23  02:08:36  -7.0   -4.0     -5.28868     2      2      
iter:  24  02:08:37  -7.1   -4.2     -5.28875     2      3      
iter:  25  02:08:38  -7.6   -4.7     -5.28879     2      1      
iter:  26  02:08:39  -7.8   -4.9     -5.28877     2      1      
iter:  27  02:08:40  -7.9   -5.0     -5.28869     2      1      
iter:  28  02:08:40  -8.2   -5.2     -5.28882     1      1      
iter:  29  02:08:41  -8.4   -5.2     -5.28880     2      1      
iter:  30  02:08:42  -8.6   -5.3     -5.28883     1      1      
iter:  31  02:08:43  -8.8   -5.5     -5.28887     2      1      
iter:  32  02:08:44  -9.0   -5.6     -5.28884     1      1      
------------------------------------
Converged After 32 Iterations.

Energy Contributions Relative to Reference Atom:(reference = -44951.11296)
-------------------------
Kinetic:         -8.59543
Potential:       +6.33033
External:        +0.00000
XC:              -3.25733
Entropy (-ST):   -0.03519
Local:           +0.25119
-------------------------
Free Energy:     -5.30643
Zero Kelvin:     -5.28884

Fermi Level: 9.74820


Total Charge:  -0.000000 electrons
Dipole Moment: [-1.0254508 -1.0254508 -1.0254508]

Memory estimate
---------------
Calculator  231.91 MiB
    Initial overhead  218.06 MiB
    Density  5.95 MiB
        Arrays  0.34 MiB
        Localized functions  4.89 MiB
        Mixer  0.08 MiB
        Interpolator  0.64 MiB
    Hamiltonian  2.10 MiB
        Arrays  0.22 MiB
        Restrictor  0.37 MiB
        XC 3D grid  0.11 MiB
        Poisson  1.03 MiB
        vbar  0.37 MiB
    Wavefunctions  5.80 MiB
        Arrays psit_nG  3.96 MiB
        Eigensolver  0.53 MiB
        Projectors  0.83 MiB
        Overlap op  0.40 MiB
        Kinetic operator  0.09 MiB

Positions:
  0 Cu    0.0000    0.0000    0.0000

                
                
                
                
       Cu       
                
                
                

Unit Cell:
           Periodic     X           Y           Z      Points  Spacing
  --------------------------------------------------------------------
  1. axis:    yes    0.000000    1.734375    1.734375    12     0.2044
  2. axis:    yes    1.734375    0.000000    1.734375    12     0.2044
  3. axis:    yes    1.734375    1.734375    0.000000    12     0.2044

Cu-setup:
  name   : Copper
  id     : 0f0e166f2a1531348bd10bcfa07bef11
  Z      : 29
  valence: 11
  core   : 18
  charge : 0.0
  file   : /usr/share/gpaw-setups/Cu.LDA.gz
  cutoffs: 1.06(comp), 2.06(filt), 2.43(core), lmax=2
  valence states:
            energy   radius
    4s(1)   -4.857   1.164
    4p(0)   -0.783   1.164
    3d(10)  -5.324   1.058
    *s      22.354   1.164
    *p      26.429   1.164
    *d      21.887   1.058

Using partial waves for Cu as LCAO basis

Using the LDA Exchange-Correlation Functional.
Spin-Paired Calculation
Total Charge:      0.000000
Fermi Temperature: 0.100000
Mode: Finite-difference
Eigensolver:       rmm-diis
                   (3 nearest neighbors central finite-difference stencil)
Poisson Solver:    Jacobi 
                   (3 nearest neighbors central finite-difference stencil)
Interpolation:     6th Order
Reference Energy:  -44951.112957

Total number of cores used: 1
Diagonalizer layout: Serial LAPACK
Orthonormalizer layout: Serial LAPACK

Symmetries present: 48
10 k-points in the Irreducible Part of the Brillouin Zone (total: 64)
Linear Mixing Parameter:           0.1
Pulay Mixing with 3 Old Densities
Damping of Long Wave Oscillations: 50

Convergence Criteria:
Total Energy Change per Atom:           0.001 eV / atom
Integral of Absolute Density Change:    0.0001 electrons
Integral of Absolute Eigenstate Change: 1e-09
Number of Bands in Calculation:         15
Bands to Converge:                      Occupied States Only
Number of Valence Electrons:            11
                     log10-error:    Total        Iterations:
           Time      WFS    Density  Energy       Fermi  Poisson
iter:   1  02:08:59  +2.8            -5.38348     8      11     
iter:   2  02:09:01  -1.4            -5.69246     3             
iter:   3  02:09:04  -1.9            -5.78648     2             
iter:   4  02:09:06  -1.0   -1.2     -5.06830     11     7      
iter:   5  02:09:08  -0.6   -1.4     -4.58759     13     7      
iter:   6  02:09:10  -2.0   -1.9     -4.69459     3      6      
iter:   7  02:09:13  -2.6   -2.2     -4.70152     2      6      
iter:   8  02:09:15  -3.2   -3.1     -4.70471     2      3      
iter:   9  02:09:17  -3.5   -3.0     -4.70598     2      3      
iter:  10  02:09:19  -4.0   -2.9     -4.70639     2      4      
iter:  11  02:09:22  -4.2   -3.0     -4.70680     2      3      
iter:  12  02:09:24  -4.5   -3.0     -4.70673     2      4      
iter:  13  02:09:26  -4.7   -3.0     -4.70692     2      4      
iter:  14  02:09:28  -4.8   -3.1     -4.70698     2      3      
iter:  15  02:09:31  -4.3   -3.1     -4.70703     3      4      
iter:  16  02:09:33  -5.2   -3.2     -4.70683     2      4      
iter:  17  02:09:35  -5.2   -3.3     -4.70705     2      3      
iter:  18  02:09:37  -5.5   -3.3     -4.70686     2      3      
iter:  19  02:09:40  -5.5   -3.3     -4.70684     2      4      
iter:  20  02:09:42  -5.8   -3.4     -4.70682     2      3      
iter:  21  02:09:44  -5.9   -3.5     -4.70685     2      3      
iter:  22  02:09:46  -6.3   -3.6     -4.70700     2      3      
iter:  23  02:09:49  -6.6   -3.8     -4.70683     2      2      
iter:  24  02:09:51  -6.6   -3.8     -4.70684     2      3      
iter:  25  02:09:53  -6.9   -4.0     -4.70694     2      3      
iter:  26  02:09:55  -7.1   -4.2     -4.70683     2      2      
iter:  27  02:09:58  -6.8   -4.2     -4.70669     2      2      
iter:  28  02:10:00  -7.6   -4.4     -4.70694     2      2      
iter:  29  02:10:02  -7.8   -4.5     -4.70671     2      1      
iter:  30  02:10:04  -8.1   -4.6     -4.70679     1      2      
iter:  31  02:10:06  -8.3   -4.7     -4.70704     2      1      
iter:  32  02:10:09  -8.4   -4.8     -4.70685     2      1      
iter:  33  02:10:11  -8.5   -4.9     -4.70684     2      2      
iter:  34  02:10:13  -9.0   -4.9     -4.70688     1      1      
------------------------------------
Converged After 34 Iterations.

Energy Contributions Relative to Reference Atom:(reference = -44951.11296)
-------------------------
Kinetic:         -8.90655
Potential:       +7.05917
External:        +0.00000
XC:              -2.93425
Entropy (-ST):   -0.03413
Local:           +0.09181
-------------------------
Free Energy:     -4.72394
Zero Kelvin:     -4.70688

Fermi Level: 9.27933


Total Charge:  -0.000000 electrons
Dipole Moment: [-0.69920009 -0.69920009 -0.69920009]

Memory estimate
---------------
Calculator  234.79 MiB
    Initial overhead  230.44 MiB
    Density  1.89 MiB
        Arrays  0.10 MiB
        Localized functions  1.48 MiB
        Mixer  0.02 MiB
        Interpolator  0.28 MiB
    Hamiltonian  0.71 MiB
        Arrays  0.07 MiB
        Restrictor  0.16 MiB
        XC 3D grid  0.03 MiB
        Poisson  0.35 MiB
        vbar  0.11 MiB
    Wavefunctions  1.74 MiB
        Arrays psit_nG  1.17 MiB
        Eigensolver  0.16 MiB
        Projectors  0.25 MiB
        Overlap op  0.12 MiB
        Kinetic operator  0.04 MiB

Positions:
  0 Cu    0.0000    0.0000    0.0000

                
                
                
                
       Cu       
                
                
                

Unit Cell:
           Periodic     X           Y           Z      Points  Spacing
  --------------------------------------------------------------------
  1. axis:    yes    0.000000    1.720313    1.720313     8     0.3041
  2. axis:    yes    1.720313    0.000000    1.720313     8     0.3041
  3. axis:    yes    1.720313    1.720313    0.000000     8     0.3041

Cu-setup:
  name   : Copper
  id     : 0f0e166f2a1531348bd10bcfa07bef11
  Z      : 29
  valence: 11
  core   : 18
  charge : 0.0
  file   : /usr/share/gpaw-setups/Cu.LDA.gz
  cutoffs: 1.06(comp), 2.06(filt), 2.43(core), lmax=2
  valence states:
            energy   radius
    4s(1)   -4.857   1.164
    4p(0)   -0.783   1.164
    3d(10)  -5.324   1.058
    *s      22.354   1.164
    *p      26.429   1.164
    *d      21.887   1.058

Using partial waves for Cu as LCAO basis

Using the LDA Exchange-Correlation Functional.
Spin-Paired Calculation
Total Charge:      0.000000
Fermi Temperature: 0.100000
Mode: Finite-difference
Eigensolver:       rmm-diis
                   (3 nearest neighbors central finite-difference stencil)
Poisson Solver:    Jacobi 
                   (3 nearest neighbors central finite-difference stencil)
Interpolation:     6th Order
Reference Energy:  -44951.112957

Total number of cores used: 1
Diagonalizer layout: Serial LAPACK
Orthonormalizer layout: Serial LAPACK

Symmetries present: 48
10 k-points in the Irreducible Part of the Brillouin Zone (total: 64)
Linear Mixing Parameter:           0.1
Pulay Mixing with 3 Old Densities
Damping of Long Wave Oscillations: 50

Convergence Criteria:
Total Energy Change per Atom:           0.001 eV / atom
Integral of Absolute Density Change:    0.0001 electrons
Integral of Absolute Eigenstate Change: 1e-09
Number of Bands in Calculation:         15
Bands to Converge:                      Occupied States Only
Number of Valence Electrons:            11
                     log10-error:    Total        Iterations:
           Time      WFS    Density  Energy       Fermi  Poisson
iter:   1  02:10:20  +1.9            -6.01889     8      13     
iter:   2  02:10:21  -1.9            -6.28523     3             
iter:   3  02:10:21  -2.4            -6.37049     2             
iter:   4  02:10:22  -1.5   -1.2     -5.67277     10     8      
iter:   5  02:10:23  -1.1   -1.4     -5.17604     13     9      
iter:   6  02:10:24  -2.4   -1.9     -5.28813     3      6      
iter:   7  02:10:25  -3.0   -2.3     -5.29818     3      6      
iter:   8  02:10:26  -3.5   -3.0     -5.30242     3      3      
iter:   9  02:10:27  -3.8   -2.9     -5.30507     3      5      
iter:  10  02:10:27  -4.1   -2.7     -5.30498     3      5      
iter:  11  02:10:28  -4.3   -2.8     -5.30507     3      4      
iter:  12  02:10:29  -4.5   -2.8     -5.30491     3      5      
iter:  13  02:10:30  -5.1   -3.0     -5.30517     2      3      
iter:  14  02:10:31  -5.3   -3.0     -5.30516     2      4      
iter:  15  02:10:32  -5.6   -3.3     -5.30517     2      4      
iter:  16  02:10:33  -5.5   -3.4     -5.30512     2      3      
iter:  17  02:10:34  -5.9   -3.6     -5.30539     2      2      
iter:  18  02:10:34  -6.0   -3.7     -5.30531     2      3      
iter:  19  02:10:35  -6.3   -4.0     -5.30502     2      1      
iter:  20  02:10:36  -6.5   -4.2     -5.30524     2      1      
iter:  21  02:10:37  -6.7   -4.2     -5.30524     2      1      
iter:  22  02:10:38  -6.9   -4.2     -5.30516     2      2      
iter:  23  02:10:39  -7.1   -4.3     -5.30517     2      1      
iter:  24  02:10:40  -7.3   -4.3     -5.30515     2      2      
iter:  25  02:10:41  -7.5   -4.5     -5.30512     2      2      
iter:  26  02:10:41  -7.8   -4.8     -5.30513     2      1      
iter:  27  02:10:42  -8.0   -5.2     -5.30519     1      1      
iter:  28  02:10:43  -8.1   -5.2     -5.30518     1      1      
iter:  29  02:10:44  -8.4   -5.3     -5.30521     1      1      
iter:  30  02:10:45  -8.5   -5.3     -5.30516     1      1      
iter:  31  02:10:46  -8.7   -5.2     -5.30518     1      1      
iter:  32  02:10:47  -8.9   -5.5     -5.30522     1      1      
iter:  33  02:10:47  -9.1   -6.2     -5.30523     1      1      
------------------------------------
Converged After 33 Iterations.

Energy Contributions Relative to Reference Atom:(reference = -44951.11296)
-------------------------
Kinetic:         -9.00902
Potential:       +6.64289
External:        +0.00000
XC:              -3.17365
Entropy (-ST):   -0.03488
Local:           +0.25199
-------------------------
Free Energy:     -5.32266
Zero Kelvin:     -5.30523

Fermi Level: 9.62323


Total Charge:  -0.000000 electrons
Dipole Moment: [-1.03105081 -1.03105081 -1.03105081]

Memory estimate
---------------
Calculator  234.76 MiB
    Initial overhead  230.44 MiB
    Density  1.87 MiB
        Arrays  0.10 MiB
        Localized functions  1.46 MiB
        Mixer  0.02 MiB
        Interpolator  0.28 MiB
    Hamiltonian  0.71 MiB
        Arrays  0.07 MiB
        Restrictor  0.16 MiB
        XC 3D grid  0.03 MiB
        Poisson  0.35 MiB
        vbar  0.11 MiB
    Wavefunctions  1.74 MiB
        Arrays psit_nG  1.17 MiB
        Eigensolver  0.16 MiB
        Projectors  0.25 MiB
        Overlap op  0.12 MiB
        Kinetic operator  0.04 MiB

Positions:
  0 Cu    0.0000    0.0000    0.0000

                
                
                
                
       Cu       
                
                
                

Unit Cell:
           Periodic     X           Y           Z      Points  Spacing
  --------------------------------------------------------------------
  1. axis:    yes    0.000000    1.729688    1.729688     8     0.3058
  2. axis:    yes    1.729688    0.000000    1.729688     8     0.3058
  3. axis:    yes    1.729688    1.729688    0.000000     8     0.3058

Cu-setup:
  name   : Copper
  id     : 0f0e166f2a1531348bd10bcfa07bef11
  Z      : 29
  valence: 11
  core   : 18
  charge : 0.0
  file   : /usr/share/gpaw-setups/Cu.LDA.gz
  cutoffs: 1.06(comp), 2.06(filt), 2.43(core), lmax=2
  valence states:
            energy   radius
    4s(1)   -4.857   1.164
    4p(0)   -0.783   1.164
    3d(10)  -5.324   1.058
    *s      22.354   1.164
    *p      26.429   1.164
    *d      21.887   1.058

Using partial waves for Cu as LCAO basis

Using the LDA Exchange-Correlation Functional.
Spin-Paired Calculation
Total Charge:      0.000000
Fermi Temperature: 0.100000
Mode: Finite-difference
Eigensolver:       rmm-diis
                   (3 nearest neighbors central finite-difference stencil)
Poisson Solver:    Jacobi 
                   (3 nearest neighbors central finite-difference stencil)
Interpolation:     6th Order
Reference Energy:  -44951.112957

Total number of cores used: 1
Diagonalizer layout: Serial LAPACK
Orthonormalizer layout: Serial LAPACK

Symmetries present: 48
10 k-points in the Irreducible Part of the Brillouin Zone (total: 64)
Linear Mixing Parameter:           0.1
Pulay Mixing with 3 Old Densities
Damping of Long Wave Oscillations: 50

Convergence Criteria:
Total Energy Change per Atom:           0.001 eV / atom
[...]

Positions:
  0 Cu    0.0000    0.0000    0.0000

                
                
                
                
       Cu       
                
                
                

Unit Cell:
           Periodic     X           Y           Z      Points  Spacing
  --------------------------------------------------------------------
  1. axis:    yes    0.000000    1.732013    1.732013     8     0.3062
  2. axis:    yes    1.732013    0.000000    1.732013     8     0.3062
  3. axis:    yes    1.732013    1.732013    0.000000     8     0.3062

Cu-setup:
  name   : Copper
  id     : 0f0e166f2a1531348bd10bcfa07bef11
  Z      : 29
  valence: 11
  core   : 18
  charge : 0.0
  file   : /usr/share/gpaw-setups/Cu.LDA.gz
  cutoffs: 1.06(comp), 2.06(filt), 2.43(core), lmax=2
  valence states:
            energy   radius
    4s(1)   -4.857   1.164
    4p(0)   -0.783   1.164
    3d(10)  -5.324   1.058
    *s      22.354   1.164
    *p      26.429   1.164
    *d      21.887   1.058

Using partial waves for Cu as LCAO basis

Using the LDA Exchange-Correlation Functional.
Spin-Paired Calculation
Total Charge:      0.000000
Fermi Temperature: 0.100000
Mode: Finite-difference
Eigensolver:       rmm-diis
                   (3 nearest neighbors central finite-difference stencil)
Poisson Solver:    Jacobi 
                   (3 nearest neighbors central finite-difference stencil)
Interpolation:     6th Order
Reference Energy:  -44951.112957

Total number of cores used: 1
Diagonalizer layout: Serial LAPACK
Orthonormalizer layout: Serial LAPACK

Symmetries present: 48
10 k-points in the Irreducible Part of the Brillouin Zone (total: 64)
Linear Mixing Parameter:           0.1
Pulay Mixing with 3 Old Densities
Damping of Long Wave Oscillations: 50

Convergence Criteria:
Total Energy Change per Atom:           0.001 eV / atom
Integral of Absolute Density Change:    0.0001 electrons
Integral of Absolute Eigenstate Change: 1e-09
Number of Bands in Calculation:         15
Bands to Converge:                      Occupied States Only
Number of Valence Electrons:            11
                     log10-error:    Total        Iterations:
           Time      WFS    Density  Energy       Fermi  Poisson
iter:   1  02:29:57  +1.9            -6.05022     8      13     
iter:   2  02:29:57  -2.0            -6.31352     3             
iter:   3  02:29:58  -2.4            -6.39984     2             
iter:   4  02:29:59  -1.5   -1.2     -5.69742     10     8      
iter:   5  02:30:00  -1.1   -1.4     -5.21461     13     9      
iter:   6  02:30:01  -2.5   -1.9     -5.32479     2      6      
iter:   7  02:30:02  -3.0   -2.3     -5.33592     3      6      
iter:   8  02:30:03  -3.5   -3.0     -5.34039     2      3      
iter:   9  02:30:03  -3.6   -2.9     -5.34397     3      5      
iter:  10  02:30:04  -4.0   -2.5     -5.34315     3      5      
iter:  11  02:30:05  -4.2   -2.8     -5.34299     3      4      
iter:  12  02:30:06  -4.5   -2.8     -5.34298     3      5      
iter:  13  02:30:07  -5.1   -3.0     -5.34316     2      3      
iter:  14  02:30:08  -5.3   -3.0     -5.34320     2      4      
iter:  15  02:30:09  -5.6   -3.3     -5.34323     2      4      
iter:  16  02:30:10  -5.7   -3.5     -5.34332     2      3      
iter:  17  02:30:10  -5.9   -3.9     -5.34330     2      3      
iter:  18  02:30:11  -6.1   -4.4     -5.34323     2      1      
iter:  19  02:30:12  -6.4   -4.3     -5.34324     2      2      
iter:  20  02:30:13  -6.6   -4.2     -5.34330     2      2      
iter:  21  02:30:14  -6.7   -4.2     -5.34324     2      2      
iter:  22  02:30:15  -6.9   -4.2     -5.34330     2      2      
iter:  23  02:30:16  -7.1   -4.2     -5.34311     1      1      
iter:  24  02:30:16  -7.0   -4.2     -5.34321     2      4      
iter:  25  02:30:17  -7.5   -4.1     -5.34347     2      2      
iter:  26  02:30:18  -7.3   -4.3     -5.34337     2      3      
iter:  27  02:30:19  -7.8   -4.4     -5.34331     2      1      
iter:  28  02:30:20  -7.9   -4.4     -5.34319     2      2      
iter:  29  02:30:21  -8.2   -4.6     -5.34315     2      1      
iter:  30  02:30:22  -8.0   -4.7     -5.34307     2      1      
iter:  31  02:30:22  -8.5   -4.8     -5.34316     2      1      
iter:  32  02:30:23  -8.3   -5.0     -5.34313     2      1      
iter:  33  02:30:24  -8.9   -5.2     -5.34324     2      1      
iter:  34  02:30:25  -9.3   -5.4     -5.34318     1      1      
------------------------------------
Converged After 34 Iterations.

Energy Contributions Relative to Reference Atom:(reference = -44951.11296)
-------------------------
Kinetic:        -10.01604
Potential:       +7.40473
External:        +0.00000
XC:              -2.97031
Entropy (-ST):   -0.03408
Local:           +0.25549
-------------------------
Free Energy:     -5.36022
Zero Kelvin:     -5.34318

Fermi Level: 9.31744


Total Charge:  0.000000 electrons
Dipole Moment: [-1.04506825 -1.04506825 -1.04506825]

Memory estimate
---------------
Calculator  317.78 MiB
    Initial overhead  313.47 MiB
    Density  1.86 MiB
        Arrays  0.10 MiB
        Localized functions  1.45 MiB
        Mixer  0.02 MiB
        Interpolator  0.28 MiB
    Hamiltonian  0.71 MiB
        Arrays  0.07 MiB
        Restrictor  0.16 MiB
        XC 3D grid  0.03 MiB
        Poisson  0.35 MiB
        vbar  0.11 MiB
    Wavefunctions  1.74 MiB
        Arrays psit_nG  1.17 MiB
        Eigensolver  0.16 MiB
        Projectors  0.25 MiB
        Overlap op  0.12 MiB
        Kinetic operator  0.04 MiB

Positions:
  0 Cu    0.0000    0.0000    0.0000

                
                
                
                
       Cu       
                
                
                

Unit Cell:
           Periodic     X           Y           Z      Points  Spacing
  --------------------------------------------------------------------
  1. axis:    yes    0.000000    1.732050    1.732050     8     0.3062
  2. axis:    yes    1.732050    0.000000    1.732050     8     0.3062
  3. axis:    yes    1.732050    1.732050    0.000000     8     0.3062

Cu-setup:
  name   : Copper
  id     : 0f0e166f2a1531348bd10bcfa07bef11
  Z      : 29
  valence: 11
  core   : 18
  charge : 0.0
  file   : /usr/share/gpaw-setups/Cu.LDA.gz
  cutoffs: 1.06(comp), 2.06(filt), 2.43(core), lmax=2
  valence states:
            energy   radius
    4s(1)   -4.857   1.164
    4p(0)   -0.783   1.164
    3d(10)  -5.324   1.058
    *s      22.354   1.164
    *p      26.429   1.164
    *d      21.887   1.058

Using partial waves for Cu as LCAO basis

Using the LDA Exchange-Correlation Functional.
Spin-Paired Calculation
Total Charge:      0.000000
Fermi Temperature: 0.100000
Mode: Finite-difference
Eigensolver:       rmm-diis
                   (3 nearest neighbors central finite-difference stencil)
Poisson Solver:    Jacobi 
                   (3 nearest neighbors central finite-difference stencil)
Interpolation:     6th Order
Reference Energy:  -44951.112957

Total number of cores used: 1
Diagonalizer layout: Serial LAPACK
Orthonormalizer layout: Serial LAPACK

Symmetries present: 48
10 k-points in the Irreducible Part of the Brillouin Zone (total: 64)
Linear Mixing Parameter:           0.1
Pulay Mixing with 3 Old Densities
Damping of Long Wave Oscillations: 50

Convergence Criteria:
Total Energy Change per Atom:           0.001 eV / atom
Integral of Absolute Density Change:    0.0001 electrons
Integral of Absolute Eigenstate Change: 1e-09
Number of Bands in Calculation:         15
Bands to Converge:                      Occupied States Only
Number of Valence Electrons:            11
                     log10-error:    Total        Iterations:
           Time      WFS    Density  Energy       Fermi  Poisson
iter:   1  02:30:31  +1.9            -6.05032     8      13     
iter:   2  02:30:32  -2.0            -6.31361     3             
iter:   3  02:30:33  -2.4            -6.39992     2             
iter:   4  02:30:34  -1.5   -1.2     -5.69749     10     8      
iter:   5  02:30:35  -1.1   -1.4     -5.21471     13     9      
iter:   6  02:30:36  -2.5   -1.9     -5.32490     2      6      
iter:   7  02:30:36  -3.0   -2.3     -5.33604     3      6      
iter:   8  02:30:37  -3.5   -3.0     -5.34050     2      3      
iter:   9  02:30:38  -3.6   -2.9     -5.34409     3      5      
iter:  10  02:30:39  -4.0   -2.5     -5.34326     3      5      
iter:  11  02:30:40  -4.2   -2.8     -5.34310     3      4      
iter:  12  02:30:41  -4.5   -2.8     -5.34310     3      5      
iter:  13  02:30:42  -5.1   -3.0     -5.34328     2      3      
iter:  14  02:30:43  -5.3   -3.0     -5.34331     2      4      
iter:  15  02:30:43  -5.6   -3.3     -5.34334     2      4      
iter:  16  02:30:44  -5.7   -3.5     -5.34343     2      3      
iter:  17  02:30:45  -5.9   -3.9     -5.34341     2      3      
iter:  18  02:30:46  -6.1   -4.4     -5.34334     2      1      
iter:  19  02:30:47  -6.4   -4.3     -5.34336     2      2      
iter:  20  02:30:48  -6.6   -4.1     -5.34341     2      2      
iter:  21  02:30:49  -6.7   -4.2     -5.34335     2      2      
iter:  22  02:30:49  -6.9   -4.2     -5.34341     2      2      
iter:  23  02:30:50  -7.1   -4.2     -5.34322     1      1      
iter:  24  02:30:51  -7.0   -4.2     -5.34332     2      4      
iter:  25  02:30:52  -7.5   -4.0     -5.34358     2      2      
iter:  26  02:30:53  -7.4   -4.2     -5.34350     2      3      
iter:  27  02:30:54  -7.8   -4.4     -5.34332     2      1      
iter:  28  02:30:55  -8.0   -4.4     -5.34312     2      2      
iter:  29  02:30:56  -8.4   -4.8     -5.34339     1      1      
iter:  30  02:30:56  -8.5   -4.8     -5.34348     1      2      
iter:  31  02:30:57  -8.7   -5.4     -5.34334     2      1      
iter:  32  02:30:58  -9.0   -5.6     -5.34332     1      1      
iter:  33  02:30:59  -9.1   -6.0     -5.34339     1      1      
------------------------------------
Converged After 33 Iterations.

Energy Contributions Relative to Reference Atom:(reference = -44951.11296)
-------------------------
Kinetic:        -10.01563
Potential:       +7.40395
External:        +0.00000
XC:              -2.96995
Entropy (-ST):   -0.03408
Local:           +0.25529
-------------------------
Free Energy:     -5.36043
Zero Kelvin:     -5.34339

Fermi Level: 9.31655


Total Charge:  -0.000000 electrons
Dipole Moment: [-1.04511227 -1.04511227 -1.04511227]

Memory estimate
---------------
Calculator  327.34 MiB
    Initial overhead  313.47 MiB
    Density  5.97 MiB
        Arrays  0.34 MiB
        Localized functions  4.91 MiB
        Mixer  0.08 MiB
        Interpolator  0.64 MiB
    Hamiltonian  2.10 MiB
        Arrays  0.22 MiB
        Restrictor  0.37 MiB
        XC 3D grid  0.11 MiB
        Poisson  1.03 MiB
        vbar  0.37 MiB
    Wavefunctions  5.80 MiB
        Arrays psit_nG  3.96 MiB
        Eigensolver  0.53 MiB
        Projectors  0.83 MiB
        Overlap op  0.40 MiB
        Kinetic operator  0.09 MiB

Positions:
  0 Cu    0.0000    0.0000    0.0000

                
                
                
                
       Cu       
                
                
                

Unit Cell:
           Periodic     X           Y           Z      Points  Spacing
  --------------------------------------------------------------------
  1. axis:    yes    0.000000    1.732068    1.732068    12     0.2041
  2. axis:    yes    1.732068    0.000000    1.732068    12     0.2041
  3. axis:    yes    1.732068    1.732068    0.000000    12     0.2041

Cu-setup:
  name   : Copper
  id     : 0f0e166f2a1531348bd10bcfa07bef11
  Z      : 29
  valence: 11
  core   : 18
  charge : 0.0
  file   : /usr/share/gpaw-setups/Cu.LDA.gz
  cutoffs: 1.06(comp), 2.06(filt), 2.43(core), lmax=2
  valence states:
            energy   radius
    4s(1)   -4.857   1.164
    4p(0)   -0.783   1.164
    3d(10)  -5.324   1.058
    *s      22.354   1.164
    *p      26.429   1.164
    *d      21.887   1.058

Using partial waves for Cu as LCAO basis

Using the LDA Exchange-Correlation Functional.
Spin-Paired Calculation
Total Charge:      0.000000
Fermi Temperature: 0.100000
Mode: Finite-difference
Eigensolver:       rmm-diis
                   (3 nearest neighbors central finite-difference stencil)
Poisson Solver:    Jacobi 
                   (3 nearest neighbors central finite-difference stencil)
Interpolation:     6th Order
Reference Energy:  -44951.112957

Total number of cores used: 1
Diagonalizer layout: Serial LAPACK
Orthonormalizer layout: Serial LAPACK

Symmetries present: 48
10 k-points in the Irreducible Part of the Brillouin Zone (total: 64)
Linear Mixing Parameter:           0.1
Pulay Mixing with 3 Old Densities
Damping of Long Wave Oscillations: 50

Convergence Criteria:
Total Energy Change per Atom:           0.001 eV / atom
Integral of Absolute Density Change:    0.0001 electrons
Integral of Absolute Eigenstate Change: 1e-09
Number of Bands in Calculation:         15
Bands to Converge:                      Occupied States Only
Number of Valence Electrons:            11
                     log10-error:    Total        Iterations:
           Time      WFS    Density  Energy       Fermi  Poisson
iter:   1  02:31:15  +2.8            -5.38084     8      11     
iter:   2  02:31:17  -1.4            -5.69009     3             
iter:   3  02:31:19  -1.9            -5.78384     2             
iter:   4  02:31:21  -1.0   -1.2     -5.06670     11     7      
iter:   5  02:31:23  -0.6   -1.4     -4.58321     13     7      
iter:   6  02:31:26  -2.0   -1.9     -4.69057     3      6      
iter:   7  02:31:28  -2.6   -2.2     -4.69729     2      6      
iter:   8  02:31:30  -3.2   -3.1     -4.70049     2      3      
iter:   9  02:31:32  -3.5   -3.0     -4.70180     2      3      
iter:  10  02:31:35  -4.0   -2.9     -4.70216     2      4      
iter:  11  02:31:37  -4.2   -3.1     -4.70260     2      3      
iter:  12  02:31:39  -4.5   -3.0     -4.70250     2      4      
iter:  13  02:31:41  -4.7   -3.1     -4.70269     2      4      
iter:  14  02:31:44  -4.0   -3.0     -4.70248     3      4      
iter:  15  02:31:46  -5.0   -3.2     -4.70263     2      3      
iter:  16  02:31:48  -5.0   -3.4     -4.70272     2      3      
iter:  17  02:31:50  -5.4   -3.9     -4.70271     2      2      
iter:  18  02:31:53  -5.6   -4.1     -4.70275     2      2      
iter:  19  02:31:55  -5.8   -4.1     -4.70275     2      2      
iter:  20  02:31:57  -6.0   -4.1     -4.70272     2      2      
iter:  21  02:31:59  -6.2   -4.2     -4.70259     2      1      
iter:  22  02:32:02  -6.3   -4.3     -4.70268     2      3      
iter:  23  02:32:04  -6.6   -4.3     -4.70262     1      1      
iter:  24  02:32:06  -6.8   -4.5     -4.70272     2      2      
iter:  25  02:32:08  -6.9   -5.0     -4.70283     2      1      
iter:  26  02:32:10  -7.2   -5.0     -4.70271     1      1      
iter:  27  02:32:13  -7.4   -5.0     -4.70265     1      1      
iter:  28  02:32:15  -7.6   -5.1     -4.70271     2      1      
iter:  29  02:32:17  -7.8   -5.1     -4.70262     2      1      
iter:  30  02:32:19  -8.0   -5.1     -4.70269     1      1      
iter:  31  02:32:22  -8.2   -5.3     -4.70265     2      1      
iter:  32  02:32:24  -8.4   -5.4     -4.70264     1      1      
iter:  33  02:32:26  -8.6   -5.7     -4.70268     2      1      
iter:  34  02:32:28  -8.8   -6.0     -4.70270     1      1      
iter:  35  02:32:30  -9.0   -6.0     -4.70271     1      1      
------------------------------------
Converged After 35 Iterations.

Energy Contributions Relative to Reference Atom:(reference = -44951.11296)
-------------------------
Kinetic:         -8.68015
Potential:       +6.87900
External:        +0.00000
XC:              -2.97517
Entropy (-ST):   -0.03429
Local:           +0.09076
-------------------------
Free Energy:     -4.71986
Zero Kelvin:     -4.70271

Fermi Level: 9.33874


Total Charge:  -0.000000 electrons
Dipole Moment: [-0.69735965 -0.69735965 -0.69735965]
<?xml version="1.0" ?>
<test id="FCCLattice">
	<config>
		<potential>
			GPAW
		</potential>
		<element>
			Cu
		</element>
	</config>
	<results>
		<FCCLatticeConstant>
			3.46409912109
		</FCCLatticeConstant>
		<FCCEnergyPerAtom>
			-5.34338553903
		</FCCEnergyPerAtom>
	</results>
</test>

Memory usage: 313.48 MB

============================================================
Timing:                               incl.     excl.
============================================================
Initialization:                     309.396    47.824   2.3% ||
 Hamiltonian:                         5.383     0.004   0.0% |
  Atomic:                             2.588     0.132   0.0% |
   XC Correction:                     2.456     2.456   0.1% |
  Communicate energies:               0.000     0.000   0.0% |
  Hartree integrate/restrict:         0.025     0.025   0.0% |
  Initialize Hamiltonian:             0.116     0.116   0.0% |
  Poisson:                            2.389     2.389   0.1% |
  XC 3D grid:                         0.249     0.249   0.0% |
  vbar:                               0.011     0.011   0.0% |
 LCAO initialization:               256.188     7.177   0.3% |
  LCAO eigensolver:                 194.704     0.047   0.0% |
   Atomic Hamiltonian:                0.045     0.045   0.0% |
   Calculate projections:             0.012     0.012   0.0% |
   Distribute overlap matrix:         0.006     0.006   0.0% |
   Orbital Layouts:                   0.095     0.095   0.0% |
   Potential matrix:                194.499   194.499   9.4% |---|
  LCAO to grid:                      29.316    29.316   1.4% ||
  Set positions (LCAO WFS):          24.991     0.006   0.0% |
   Basic WFS set positions:           0.065     0.065   0.0% |
   Basis functions set positions:     0.002     0.002   0.0% |
   TCI: Calculate S, T, P:           24.919    24.919   1.2% |
SCF-cycle:                         1764.228     5.919   0.3% |
 Density:                            27.771     0.045   0.0% |
  Atomic density matrices:            7.281     7.281   0.4% |
  Mix:                                6.303     6.303   0.3% |
  Multipole moments:                  0.074     0.074   0.0% |
  Pseudo density:                    14.068     6.348   0.3% |
   Symmetrize density:                7.720     7.720   0.4% |
 Hamiltonian:                       110.176     0.120   0.0% |
  Atomic:                            81.834     4.420   0.2% |
   XC Correction:                    77.414    77.414   3.7% ||
  Communicate energies:               0.014     0.014   0.0% |
  Hartree integrate/restrict:         0.837     0.837   0.0% |
  Poisson:                           18.972    18.972   0.9% |
  XC 3D grid:                         8.049     8.049   0.4% |
  vbar:                               0.350     0.350   0.0% |
 Orthonormalize:                    320.995   291.915  14.1% |-----|
  Band Layouts:                       1.450     0.226   0.0% |
   Distribute results:                0.095     0.095   0.0% |
   Inverse Cholesky:                  1.129     1.129   0.1% |
  calc_matrix:                       15.511    15.511   0.7% |
  rotate_psi:                        12.119    12.119   0.6% |
 RMM-DIIS:                         1203.987   993.704  47.9% |------------------|
  precondition:                     210.284   210.284  10.1% |---|
 Subspace diag:                      95.380     1.309   0.1% |
  Band Layouts:                       3.984     0.347   0.0% |
   Diagonalize:                       3.420     3.420   0.2% |
   Distribute results:                0.217     0.217   0.0% |
  calc_matrix:                       68.013    68.013   3.3% ||
  rotate_psi:                        22.075    22.075   1.1% |
Other:                                0.158     0.158   0.0% |
============================================================
Total:                                       2073.782 100.0%
============================================================
date: Thu Feb  3 02:32:30 2011
