
  ___ ___ ___ _ _ _  
 |   |   |_  | | | | 
 | | | | | . | | | | 
 |__ |  _|___|_____|  0.7.2.6974
 |___|_|             

User: alemi@Cerebellum
Date: Thu Feb  3 01:07:02 2011
Arch: i686
Pid:  14789
Dir:  /usr/lib/python2.6/dist-packages/gpaw
ase:   /home/alemi/ase/ase  version:  3.5.0.1614
numpy: /usr/lib/python2.6/dist-packages/numpy
units: Angstrom and eV

Memory estimate
---------------
Calculator  130.30 MiB
    Initial overhead  123.70 MiB
    Density  3.71 MiB
        Arrays  0.10 MiB
        Localized functions  3.30 MiB
        Mixer  0.02 MiB
        Interpolator  0.28 MiB
    Hamiltonian  0.85 MiB
        Arrays  0.07 MiB
        Restrictor  0.16 MiB
        XC 3D grid  0.03 MiB
        Poisson  0.35 MiB
        vbar  0.24 MiB
    Wavefunctions  2.04 MiB
        Arrays psit_nG  1.17 MiB
        Eigensolver  0.16 MiB
        Projectors  0.55 MiB
        Overlap op  0.12 MiB
        Kinetic operator  0.04 MiB

Positions:
  0 Pd    0.0000    0.0000    0.0000

                
                
                
                
       Pd       
                
                
                

Unit Cell:
           Periodic     X           Y           Z      Points  Spacing
  --------------------------------------------------------------------
  1. axis:    yes    0.000000    1.500000    1.500000     8     0.2652
  2. axis:    yes    1.500000    0.000000    1.500000     8     0.2652
  3. axis:    yes    1.500000    1.500000    0.000000     8     0.2652

Pd-setup:
  name   : Palladium
  id     : 4f14685b28dc139b452fc807c0398642
  Z      : 46
  valence: 10
  core   : 36
  charge : 0.0
  file   : /usr/share/gpaw-setups/Pd.LDA.gz
  cutoffs: 1.16(comp), 2.33(filt), 2.96(core), lmax=2
  valence states:
            energy   radius
    5s(0)   -3.604   1.217
    5p(0)   -0.356   1.323
    4d(10)  -4.308   1.164
    *s      23.608   1.217
    *p      26.855   1.323
    *d      22.904   1.164

Using partial waves for Pd as LCAO basis

Using the LDA Exchange-Correlation Functional.
Spin-Paired Calculation
Total Charge:      0.000000
Fermi Temperature: 0.100000
Mode: Finite-difference
Eigensolver:       rmm-diis
                   (3 nearest neighbors central finite-difference stencil)
Poisson Solver:    Jacobi 
                   (3 nearest neighbors central finite-difference stencil)
Interpolation:     6th Order
Reference Energy:  -137098.126630

Total number of cores used: 1
Diagonalizer layout: Serial LAPACK
Orthonormalizer layout: Serial LAPACK

Symmetries present: 48
10 k-points in the Irreducible Part of the Brillouin Zone (total: 64)
Linear Mixing Parameter:           0.1
Pulay Mixing with 3 Old Densities
Damping of Long Wave Oscillations: 50

Convergence Criteria:
Total Energy Change per Atom:           0.001 eV / atom
Integral of Absolute Density Change:    0.0001 electrons
Integral of Absolute Eigenstate Change: 1e-09
Number of Bands in Calculation:         15
Bands to Converge:                      Occupied States Only
Number of Valence Electrons:            10
                     log10-error:    Total        Iterations:
           Time      WFS    Density  Energy       Fermi  Poisson
iter:   1  01:07:14  +2.3             8.34491     8      13     
iter:   2  01:07:16  -1.5             7.46148     4             
iter:   3  01:07:17  -2.1             7.33218     3             
iter:   4  01:07:19  -2.6   -1.6      7.51456     3      6      
iter:   5  01:07:21  -2.6   -1.6      8.28671     7      8      
iter:   6  01:07:23  -3.0   -2.2      8.27542     3      5      
iter:   7  01:07:24  -3.3   -2.1      8.26476     3      6      
iter:   8  01:07:26  -3.7   -2.2      8.24705     4      5      
iter:   9  01:07:28  -2.8   -2.1      8.22232     6      7      
iter:  10  01:07:30  -3.4   -2.6      8.22634     4      4      
iter:  11  01:07:31  -3.4   -2.6      8.18315     4      7      
iter:  12  01:07:33  -2.6   -2.3      8.21360     9      8      
iter:  13  01:07:35  -3.8   -2.3      8.24473     5      7      
iter:  14  01:07:37  -4.4   -3.1      8.24793     3      5      
iter:  15  01:07:38  -4.3   -3.3      8.25023     4      4      
iter:  16  01:07:40  -4.6   -3.3      8.24995     3      3      
iter:  17  01:07:42  -4.7   -3.3      8.24988     3      3      
iter:  18  01:07:44  -4.6   -3.3      8.24928     3      4      
iter:  19  01:07:45  -4.9   -3.5      8.24960     3      2      
iter:  20  01:07:47  -4.8   -3.5      8.24943     2      2      
iter:  21  01:07:49  -5.3   -3.5      8.24945     3      3      
iter:  22  01:07:51  -4.8   -3.5      8.24975     3      4      
iter:  23  01:07:52  -5.7   -3.9      8.24953     3      3      
iter:  24  01:07:54  -5.9   -4.2      8.24963     2      3      
iter:  25  01:07:56  -6.2   -4.4      8.24940     2      1      
iter:  26  01:07:58  -6.3   -4.5      8.24945     2      2      
iter:  27  01:07:59  -6.5   -4.5      8.24957     2      1      
iter:  28  01:08:01  -6.2   -4.4      8.24927     3      2      
iter:  29  01:08:03  -6.6   -4.4      8.24928     2      1      
iter:  30  01:08:05  -6.7   -4.4      8.24963     2      2      
iter:  31  01:08:06  -6.9   -4.2      8.24939     2      1      
iter:  32  01:08:08  -6.4   -4.3      8.24936     3      2      
iter:  33  01:08:10  -6.3   -4.2      8.24991     3      2      
iter:  34  01:08:12  -7.3   -4.2      8.24933     2      2      
iter:  35  01:08:13  -6.7   -4.2      8.24968     3      1      
iter:  36  01:08:15  -7.2   -4.3      8.24962     2      1      
iter:  37  01:08:17  -6.7   -4.3      8.24956     2      3      
iter:  38  01:08:19  -7.2   -4.5      8.24954     2      2      
iter:  39  01:08:20  -7.3   -4.5      8.24951     2      1      
iter:  40  01:08:22  -7.6   -4.5      8.24969     2      1      
iter:  41  01:08:24  -7.9   -4.5      8.24963     1      1      
iter:  42  01:08:25  -7.9   -4.5      8.24966     2      1      
iter:  43  01:08:27  -6.9   -4.5      8.24966     3      3      
iter:  44  01:08:29  -7.0   -4.6      8.24945     3      3      
iter:  45  01:08:31  -8.4   -4.6      8.24964     2      2      
iter:  46  01:08:32  -8.4   -4.7      8.24984     2      1      
iter:  47  01:08:34  -7.3   -4.7      8.24971     2      2      
iter:  48  01:08:36  -8.5   -5.2      8.24923     2      1      
iter:  49  01:08:38  -8.8   -5.6      8.24949     2      1      
iter:  50  01:08:39  -9.2   -5.6      8.24952     2      1      
------------------------------------
Converged After 50 Iterations.

Energy Contributions Relative to Reference Atom:(reference = -137098.12663)
-------------------------
Kinetic:       +227.08612
Potential:     -194.17757
External:        +0.00000
XC:             -25.30709
Entropy (-ST):   -0.03238
Local:           +0.66425
-------------------------
Free Energy:     +8.23332
Zero Kelvin:     +8.24952

Fermi Level: 31.03788


Total Charge:  -0.000000 electrons
Dipole Moment: [-0.99099386 -0.99099386 -0.99099386]

Memory estimate
---------------
Calculator  159.63 MiB
    Initial overhead  153.59 MiB
    Density  3.26 MiB
        Arrays  0.10 MiB
        Localized functions  2.85 MiB
        Mixer  0.02 MiB
        Interpolator  0.28 MiB
    Hamiltonian  0.81 MiB
        Arrays  0.07 MiB
        Restrictor  0.16 MiB
        XC 3D grid  0.03 MiB
        Poisson  0.35 MiB
        vbar  0.21 MiB
    Wavefunctions  1.97 MiB
        Arrays psit_nG  1.17 MiB
        Eigensolver  0.16 MiB
        Projectors  0.48 MiB
        Overlap op  0.12 MiB
        Kinetic operator  0.04 MiB

Positions:
  0 Pd    0.0000    0.0000    0.0000

                
                
                
                
       Pd       
                
                
                

Unit Cell:
           Periodic     X           Y           Z      Points  Spacing
  --------------------------------------------------------------------
  1. axis:    yes    0.000000    1.575000    1.575000     8     0.2784
  2. axis:    yes    1.575000    0.000000    1.575000     8     0.2784
  3. axis:    yes    1.575000    1.575000    0.000000     8     0.2784

Pd-setup:
  name   : Palladium
  id     : 4f14685b28dc139b452fc807c0398642
  Z      : 46
  valence: 10
  core   : 36
  charge : 0.0
  file   : /usr/share/gpaw-setups/Pd.LDA.gz
  cutoffs: 1.16(comp), 2.33(filt), 2.96(core), lmax=2
  valence states:
            energy   radius
    5s(0)   -3.604   1.217
    5p(0)   -0.356   1.323
    4d(10)  -4.308   1.164
    *s      23.608   1.217
    *p      26.855   1.323
    *d      22.904   1.164

Using partial waves for Pd as LCAO basis

Using the LDA Exchange-Correlation Functional.
Spin-Paired Calculation
Total Charge:      0.000000
Fermi Temperature: 0.100000
Mode: Finite-difference
Eigensolver:       rmm-diis
                   (3 nearest neighbors central finite-difference stencil)
Poisson Solver:    Jacobi 
                   (3 nearest neighbors central finite-difference stencil)
Interpolation:     6th Order
Reference Energy:  -137098.126630

Total number of cores used: 1
Diagonalizer layout: Serial LAPACK
Orthonormalizer layout: Serial LAPACK

Symmetries present: 48
10 k-points in the Irreducible Part of the Brillouin Zone (total: 64)
Linear Mixing Parameter:           0.1
Pulay Mixing with 3 Old Densities
Damping of Long Wave Oscillations: 50

Convergence Criteria:
Total Energy Change per Atom:           0.001 eV / atom
Integral of Absolute Density Change:    0.0001 electrons
Integral of Absolute Eigenstate Change: 1e-09
Number of Bands in Calculation:         15
Bands to Converge:                      Occupied States Only
Number of Valence Electrons:            10
                     log10-error:    Total        Iterations:
           Time      WFS    Density  Energy       Fermi  Poisson
iter:   1  01:08:49  +2.1             2.28133     6      13     
iter:   2  01:08:51  -1.7             1.56998     3             
iter:   3  01:08:52  -2.3             1.46696     2             
iter:   4  01:08:53  -2.8   -1.4      1.60038     3      7      
iter:   5  01:08:55  -2.1   -1.4      2.07288     5      9      
iter:   6  01:08:56  -3.3   -2.3      2.05837     3      5      
iter:   7  01:08:58  -3.3   -2.2      1.94657     5      6      
iter:   8  01:08:59  -2.5   -2.0      2.06849     8      7      
iter:   9  01:09:01  -3.5   -2.7      2.07545     3      5      
iter:  10  01:09:02  -3.7   -2.9      2.07058     3      5      
iter:  11  01:09:04  -4.0   -3.0      2.07458     3      4      
iter:  12  01:09:05  -4.0   -3.1      2.07982     4      5      
iter:  13  01:09:07  -4.2   -3.3      2.08078     3      4      
iter:  14  01:09:08  -4.5   -3.7      2.08044     3      3      
iter:  15  01:09:10  -4.7   -3.8      2.08049     2      3      
iter:  16  01:09:11  -4.9   -3.7      2.07991     3      3      
iter:  17  01:09:13  -4.9   -3.5      2.08018     2      2      
iter:  18  01:09:14  -5.2   -3.5      2.07959     2      2      
iter:  19  01:09:16  -5.3   -3.4      2.07964     2      3      
iter:  20  01:09:17  -5.1   -3.3      2.08049     3      4      
iter:  21  01:09:19  -5.6   -3.4      2.08039     3      4      
iter:  22  01:09:20  -5.9   -3.7      2.08040     2      3      
iter:  23  01:09:22  -5.9   -3.8      2.08035     2      4      
iter:  24  01:09:23  -6.2   -4.1      2.08015     2      3      
iter:  25  01:09:25  -6.4   -4.1      2.08038     2      1      
iter:  26  01:09:26  -6.5   -4.1      2.08040     2      2      
iter:  27  01:09:28  -6.7   -4.3      2.08024     2      1      
iter:  28  01:09:29  -6.7   -4.3      2.08017     2      2      
iter:  29  01:09:31  -6.9   -4.6      2.07988     2      1      
iter:  30  01:09:32  -7.0   -4.8      2.07995     2      1      
iter:  31  01:09:34  -7.1   -5.0      2.08005     2      1      
iter:  32  01:09:35  -7.2   -5.0      2.08028     1      1      
iter:  33  01:09:37  -7.4   -5.0      2.07992     2      1      
iter:  34  01:09:38  -7.6   -4.7      2.08036     2      1      
iter:  35  01:09:40  -7.6   -4.8      2.08048     2      2      
iter:  36  01:09:41  -7.8   -4.8      2.08012     1      2      
iter:  37  01:09:43  -7.9   -4.9      2.08028     2      1      
iter:  38  01:09:44  -8.1   -4.7      2.08023     2      1      
iter:  39  01:09:46  -8.0   -5.2      2.08032     2      3      
iter:  40  01:09:47  -8.2   -4.4      2.07996     1      2      
iter:  41  01:09:49  -8.4   -5.1      2.08017     2      1      
iter:  42  01:09:50  -8.5   -5.3      2.08028     2      1      
iter:  43  01:09:52  -8.7   -5.7      2.08022     1      1      
iter:  44  01:09:53  -8.7   -5.9      2.08022     1      1      
iter:  45  01:09:55  -9.0   -6.0      2.08023     1      1      
iter:  46  01:09:56  -9.1   -6.0      2.08023     1      1      
------------------------------------
Converged After 46 Iterations.

Energy Contributions Relative to Reference Atom:(reference = -137098.12663)
-------------------------
Kinetic:       +141.97630
Potential:     -122.70788
External:        +0.00000
XC:             -17.70321
Entropy (-ST):   -0.04035
Local:           +0.53519
-------------------------
Free Energy:     +2.06006
Zero Kelvin:     +2.08023

Fermi Level: 25.61838


Total Charge:  -0.000000 electrons
Dipole Moment: [-1.11672631 -1.11672631 -1.11672631]

Memory estimate
---------------
Calculator  167.47 MiB
    Initial overhead  161.89 MiB
    Density  2.89 MiB
        Arrays  0.10 MiB
        Localized functions  2.48 MiB
        Mixer  0.02 MiB
        Interpolator  0.28 MiB
    Hamiltonian  0.79 MiB
        Arrays  0.07 MiB
        Restrictor  0.16 MiB
        XC 3D grid  0.03 MiB
        Poisson  0.35 MiB
        vbar  0.18 MiB
    Wavefunctions  1.90 MiB
        Arrays psit_nG  1.17 MiB
        Eigensolver  0.16 MiB
        Projectors  0.41 MiB
        Overlap op  0.12 MiB
        Kinetic operator  0.04 MiB

Positions:
  0 Pd    0.0000    0.0000    0.0000

                
                
                
                
       Pd       
                
                
                

Unit Cell:
           Periodic     X           Y           Z      Points  Spacing
  --------------------------------------------------------------------
  1. axis:    yes    0.000000    1.650000    1.650000     8     0.2917
  2. axis:    yes    1.650000    0.000000    1.650000     8     0.2917
  3. axis:    yes    1.650000    1.650000    0.000000     8     0.2917

Pd-setup:
  name   : Palladium
  id     : 4f14685b28dc139b452fc807c0398642
  Z      : 46
  valence: 10
  core   : 36
  charge : 0.0
  file   : /usr/share/gpaw-setups/Pd.LDA.gz
  cutoffs: 1.16(comp), 2.33(filt), 2.96(core), lmax=2
  valence states:
            energy   radius
    5s(0)   -3.604   1.217
    5p(0)   -0.356   1.323
    4d(10)  -4.308   1.164
    *s      23.608   1.217
    *p      26.855   1.323
    *d      22.904   1.164

Using partial waves for Pd as LCAO basis

Using the LDA Exchange-Correlation Functional.
Spin-Paired Calculation
Total Charge:      0.000000
Fermi Temperature: 0.100000
Mode: Finite-difference
Eigensolver:       rmm-diis
                   (3 nearest neighbors central finite-difference stencil)
Poisson Solver:    Jacobi 
                   (3 nearest neighbors central finite-difference stencil)
Interpolation:     6th Order
Reference Energy:  -137098.126630

Total number of cores used: 1
Diagonalizer layout: Serial LAPACK
Orthonormalizer layout: Serial LAPACK

Symmetries present: 48
10 k-points in the Irreducible Part of the Brillouin Zone (total: 64)
Linear Mixing Parameter:           0.1
Pulay Mixing with 3 Old Densities
Damping of Long Wave Oscillations: 50

Convergence Criteria:
Total Energy Change per Atom:           0.001 eV / atom
Integral of Absolute Density Change:    0.0001 electrons
Integral of Absolute Eigenstate Change: 1e-09
Number of Bands in Calculation:         15
Bands to Converge:                      Occupied States Only
Number of Valence Electrons:            10
                     log10-error:    Total        Iterations:
           Time      WFS    Density  Energy       Fermi  Poisson
iter:   1  01:10:04  +1.9            -1.60360     5      13     
iter:   2  01:10:05  -1.9            -2.24611     3             
iter:   3  01:10:07  -2.5            -2.33449     2             
iter:   4  01:10:08  -2.8   -1.2     -2.16076     4      7      
iter:   5  01:10:09  -1.8   -1.3     -1.71839     10     9      
iter:   6  01:10:10  -3.2   -2.2     -1.74502     4      6      
iter:   7  01:10:12  -3.5   -2.2     -1.72379     3      6      
iter:   8  01:10:13  -3.4   -2.5     -1.72866     4      6      
iter:   9  01:10:14  -3.9   -2.7     -1.72972     2      5      
iter:  10  01:10:16  -3.9   -2.8     -1.73439     3      5      
iter:  11  01:10:17  -4.3   -2.8     -1.73264     3      5      
iter:  12  01:10:18  -3.9   -2.8     -1.72743     3      6      
iter:  13  01:10:20  -4.7   -3.2     -1.72841     2      5      
iter:  14  01:10:21  -4.6   -3.3     -1.72778     3      5      
iter:  15  01:10:22  -5.1   -4.0     -1.72787     2      2      
iter:  16  01:10:23  -5.2   -3.9     -1.72823     2      4      
iter:  17  01:10:25  -5.4   -3.5     -1.72794     3      4      
iter:  18  01:10:26  -5.7   -4.1     -1.72829     2      1      
iter:  19  01:10:27  -5.6   -4.0     -1.72788     2      3      
iter:  20  01:10:29  -6.0   -3.9     -1.72836     2      3      
iter:  21  01:10:30  -6.1   -3.9     -1.72811     2      2      
iter:  22  01:10:31  -6.3   -3.9     -1.72812     2      3      
iter:  23  01:10:32  -6.3   -4.0     -1.72833     2      2      
iter:  24  01:10:34  -6.5   -3.9     -1.72803     2      3      
iter:  25  01:10:35  -6.8   -4.0     -1.72803     2      3      
iter:  26  01:10:36  -6.9   -4.1     -1.72826     2      2      
iter:  27  01:10:37  -7.0   -4.2     -1.72796     2      2      
iter:  28  01:10:39  -7.1   -4.2     -1.72777     2      1      
iter:  29  01:10:40  -7.4   -4.2     -1.72805     2      2      
iter:  30  01:10:41  -7.6   -4.4     -1.72809     2      2      
iter:  31  01:10:42  -7.8   -4.5     -1.72801     2      1      
iter:  32  01:10:44  -7.9   -4.5     -1.72789     2      1      
iter:  33  01:10:45  -8.1   -4.6     -1.72789     2      2      
iter:  34  01:10:46  -8.1   -4.9     -1.72821     2      1      
iter:  35  01:10:48  -8.4   -5.1     -1.72818     2      1      
iter:  36  01:10:49  -8.5   -5.1     -1.72835     2      1      
iter:  37  01:10:50  -8.6   -5.1     -1.72790     2      1      
iter:  38  01:10:51  -8.8   -5.1     -1.72785     2      1      
iter:  39  01:10:53  -8.9   -5.2     -1.72821     2      1      
iter:  40  01:10:54  -9.2   -5.3     -1.72817     1      1      
------------------------------------
Converged After 40 Iterations.

Energy Contributions Relative to Reference Atom:(reference = -137098.12663)
-------------------------
Kinetic:        +81.84102
Potential:      -72.14857
External:        +0.00000
XC:             -11.87750
Entropy (-ST):   -0.04907
Local:           +0.48141
-------------------------
Free Energy:     -1.75271
Zero Kelvin:     -1.72817

Fermi Level: 21.11657


Total Charge:  -0.000000 electrons
Dipole Moment: [-1.24390036 -1.24390036 -1.24390036]

Memory estimate
---------------
Calculator  177.97 MiB
    Initial overhead  172.78 MiB
    Density  2.58 MiB
        Arrays  0.10 MiB
        Localized functions  2.17 MiB
        Mixer  0.02 MiB
        Interpolator  0.28 MiB
    Hamiltonian  0.76 MiB
        Arrays  0.07 MiB
        Restrictor  0.16 MiB
        XC 3D grid  0.03 MiB
        Poisson  0.35 MiB
        vbar  0.16 MiB
    Wavefunctions  1.85 MiB
        Arrays psit_nG  1.17 MiB
        Eigensolver  0.16 MiB
        Projectors  0.36 MiB
        Overlap op  0.12 MiB
        Kinetic operator  0.04 MiB

Positions:
  0 Pd    0.0000    0.0000    0.0000

                
                
                
                
       Pd       
                
                
                

Unit Cell:
           Periodic     X           Y           Z      Points  Spacing
  --------------------------------------------------------------------
  1. axis:    yes    0.000000    1.725000    1.725000     8     0.3049
  2. axis:    yes    1.725000    0.000000    1.725000     8     0.3049
  3. axis:    yes    1.725000    1.725000    0.000000     8     0.3049

Pd-setup:
  name   : Palladium
  id     : 4f14685b28dc139b452fc807c0398642
  Z      : 46
  valence: 10
  core   : 36
  charge : 0.0
  file   : /usr/share/gpaw-setups/Pd.LDA.gz
  cutoffs: 1.16(comp), 2.33(filt), 2.96(core), lmax=2
  valence states:
            energy   radius
    5s(0)   -3.604   1.217
    5p(0)   -0.356   1.323
    4d(10)  -4.308   1.164
    *s      23.608   1.217
    *p      26.855   1.323
    *d      22.904   1.164

Using partial waves for Pd as LCAO basis

Using the LDA Exchange-Correlation Functional.
Spin-Paired Calculation
Total Charge:      0.000000
Fermi Temperature: 0.100000
Mode: Finite-difference
Eigensolver:       rmm-diis
                   (3 nearest neighbors central finite-difference stencil)
Poisson Solver:    Jacobi 
                   (3 nearest neighbors central finite-difference stencil)
Interpolation:     6th Order
Reference Energy:  -137098.126630

Total number of cores used: 1
Diagonalizer layout: Serial LAPACK
Orthonormalizer layout: Serial LAPACK

Symmetries present: 48
10 k-points in the Irreducible Part of the Brillouin Zone (total: 64)
Linear Mixing Parameter:           0.1
Pulay Mixing with 3 Old Densities
Damping of Long Wave Oscillations: 50

Convergence Criteria:
Total Energy Change per Atom:           0.001 eV / atom
Integral of Absolute Density Change:    0.0001 electrons
Integral of Absolute Eigenstate Change: 1e-09
Number of Bands in Calculation:         15
Bands to Converge:                      Occupied States Only
Number of Valence Electrons:            10
                     log10-error:    Total        Iterations:
           Time      WFS    Density  Energy       Fermi  Poisson
iter:   1  01:11:01  +1.8            -4.03640     4      13     
iter:   2  01:11:02  -2.0            -4.62406     3             
iter:   3  01:11:03  -2.7            -4.70218     2             
iter:   4  01:11:04  -2.8   -1.1     -4.44696     5      8      
iter:   5  01:11:05  -1.7   -1.2     -3.93623     13     9      
iter:   6  01:11:06  -3.0   -2.1     -3.98088     5      7      
iter:   7  01:11:08  -3.6   -2.0     -3.96991     2      7      
iter:   8  01:11:09  -3.9   -2.7     -3.97222     2      4      
iter:   9  01:11:10  -4.1   -2.9     -3.97414     2      4      
iter:  10  01:11:11  -4.1   -2.8     -3.97396     3      5      
iter:  11  01:11:12  -4.5   -2.8     -3.97405     2      3      
iter:  12  01:11:13  -4.5   -2.8     -3.97554     2      5      
iter:  13  01:11:14  -4.3   -2.7     -3.97621     3      5      
iter:  14  01:11:16  -4.3   -2.6     -3.97567     3      5      
iter:  15  01:11:17  -4.9   -2.8     -3.97569     2      5      
iter:  16  01:11:18  -5.2   -2.9     -3.97521     2      6      
iter:  17  01:11:19  -5.3   -3.0     -3.97532     2      4      
iter:  18  01:11:20  -5.3   -3.0     -3.97553     2      4      
iter:  19  01:11:21  -5.5   -3.0     -3.97547     2      4      
iter:  20  01:11:22  -5.8   -3.7     -3.97541     2      3      
iter:  21  01:11:24  -6.0   -4.0     -3.97538     2      2      
iter:  22  01:11:25  -5.8   -4.1     -3.97548     2      4      
iter:  23  01:11:26  -6.3   -3.9     -3.97564     2      2      
iter:  24  01:11:27  -6.2   -4.1     -3.97582     2      2      
iter:  25  01:11:28  -6.6   -4.3     -3.97574     1      2      
iter:  26  01:11:29  -6.6   -4.1     -3.97522     1      2      
iter:  27  01:11:31  -6.9   -4.2     -3.97584     2      2      
iter:  28  01:11:32  -7.1   -4.1     -3.97544     1      3      
iter:  29  01:11:33  -7.2   -4.3     -3.97539     2      2      
iter:  30  01:11:34  -7.4   -4.5     -3.97564     1      2      
iter:  31  01:11:35  -7.1   -4.7     -3.97550     2      2      
iter:  32  01:11:36  -7.7   -4.8     -3.97559     2      1      
iter:  33  01:11:37  -7.8   -5.2     -3.97557     1      1      
iter:  34  01:11:38  -8.0   -5.2     -3.97560     1      1      
iter:  35  01:11:40  -8.1   -5.1     -3.97547     2      1      
iter:  36  01:11:41  -8.2   -5.1     -3.97558     1      1      
iter:  37  01:11:42  -8.4   -5.1     -3.97557     1      1      
iter:  38  01:11:43  -8.5   -4.9     -3.97545     2      1      
iter:  39  01:11:44  -8.6   -5.1     -3.97555     2      1      
iter:  40  01:11:45  -8.8   -5.2     -3.97554     1      1      
iter:  41  01:11:46  -8.9   -5.2     -3.97544     1      1      
iter:  42  01:11:48  -9.1   -5.4     -3.97538     1      1      
------------------------------------
Converged After 42 Iterations.

Energy Contributions Relative to Reference Atom:(reference = -137098.12663)
-------------------------
Kinetic:        +39.88616
Potential:      -36.87831
External:        +0.00000
XC:              -7.45258
Entropy (-ST):   -0.05515
Local:           +0.49692
-------------------------
Free Energy:     -4.00295
Zero Kelvin:     -3.97538

Fermi Level: 17.38041


Total Charge:  -0.000000 electrons
Dipole Moment: [-1.37243716 -1.37243716 -1.37243716]

Memory estimate
---------------
Calculator  190.00 MiB
    Initial overhead  175.17 MiB
    Density  6.75 MiB
        Arrays  0.34 MiB
        Localized functions  5.70 MiB
        Mixer  0.08 MiB
        Interpolator  0.64 MiB
    Hamiltonian  2.16 MiB
        Arrays  0.22 MiB
        Restrictor  0.37 MiB
        XC 3D grid  0.11 MiB
        Poisson  1.03 MiB
        vbar  0.42 MiB
    Wavefunctions  5.92 MiB
        Arrays psit_nG  3.96 MiB
        Eigensolver  0.53 MiB
        Projectors  0.95 MiB
        Overlap op  0.40 MiB
        Kinetic operator  0.09 MiB

Positions:
  0 Pd    0.0000    0.0000    0.0000

                
                
                
                
       Pd       
                
                
                

Unit Cell:
           Periodic     X           Y           Z      Points  Spacing
  --------------------------------------------------------------------
  1. axis:    yes    0.000000    1.875000    1.875000    12     0.2210
  2. axis:    yes    1.875000    0.000000    1.875000    12     0.2210
  3. axis:    yes    1.875000    1.875000    0.000000    12     0.2210

Pd-setup:
  name   : Palladium
  id     : 4f14685b28dc139b452fc807c0398642
  Z      : 46
  valence: 10
  core   : 36
  charge : 0.0
  file   : /usr/share/gpaw-setups/Pd.LDA.gz
  cutoffs: 1.16(comp), 2.33(filt), 2.96(core), lmax=2
  valence states:
            energy   radius
    5s(0)   -3.604   1.217
    5p(0)   -0.356   1.323
    4d(10)  -4.308   1.164
    *s      23.608   1.217
    *p      26.855   1.323
    *d      22.904   1.164

Using partial waves for Pd as LCAO basis

Using the LDA Exchange-Correlation Functional.
Spin-Paired Calculation
Total Charge:      0.000000
Fermi Temperature: 0.100000
Mode: Finite-difference
Eigensolver:       rmm-diis
                   (3 nearest neighbors central finite-difference stencil)
Poisson Solver:    Jacobi 
                   (3 nearest neighbors central finite-difference stencil)
Interpolation:     6th Order
Reference Energy:  -137098.126630

Total number of cores used: 1
Diagonalizer layout: Serial LAPACK
Orthonormalizer layout: Serial LAPACK

Symmetries present: 48
10 k-points in the Irreducible Part of the Brillouin Zone (total: 64)
Linear Mixing Parameter:           0.1
Pulay Mixing with 3 Old Densities
Damping of Long Wave Oscillations: 50

Convergence Criteria:
Total Energy Change per Atom:           0.001 eV / atom
Integral of Absolute Density Change:    0.0001 electrons
Integral of Absolute Eigenstate Change: 1e-09
Number of Bands in Calculation:         15
Bands to Converge:                      Occupied States Only
Number of Valence Electrons:            10
                     log10-error:    Total        Iterations:
           Time      WFS    Density  Energy       Fermi  Poisson
iter:   1  01:12:00  +2.5            -5.46072     4      12     
iter:   2  01:12:02  -1.7            -6.01149     3             
iter:   3  01:12:04  -2.4            -6.08514     2             
iter:   4  01:12:07  -2.1   -1.0     -5.61809     6      7      
iter:   5  01:12:09  -1.0   -1.1     -4.90615     17     8      
iter:   6  01:12:12  -2.1   -2.0     -5.02529     8      7      
iter:   7  01:12:14  -2.7   -1.7     -4.99909     5      7      
iter:   8  01:12:17  -3.4   -3.0     -5.00384     2      3      
iter:   9  01:12:19  -3.7   -3.0     -5.00575     2      3      
iter:  10  01:12:22  -3.9   -2.9     -5.00686     3      4      
iter:  11  01:12:24  -4.2   -2.8     -5.00718     1      3      
iter:  12  01:12:27  -4.3   -2.8     -5.00742     2      4      
iter:  13  01:12:29  -4.4   -2.8     -5.00796     3      4      
iter:  14  01:12:32  -4.3   -2.7     -5.00757     3      5      
iter:  15  01:12:34  -4.8   -2.9     -5.00787     2      4      
iter:  16  01:12:37  -5.0   -2.9     -5.00784     2      3      
iter:  17  01:12:39  -5.0   -3.0     -5.00795     2      5      
iter:  18  01:12:42  -5.1   -3.3     -5.00825     2      3      
iter:  19  01:12:44  -5.3   -3.5     -5.00820     2      2      
iter:  20  01:12:46  -5.4   -3.6     -5.00823     2      2      
iter:  21  01:12:49  -5.6   -3.7     -5.00819     2      3      
iter:  22  01:12:51  -5.7   -4.3     -5.00828     2      1      
iter:  23  01:12:54  -5.8   -4.5     -5.00822     2      1      
iter:  24  01:12:56  -5.9   -4.5     -5.00816     2      1      
iter:  25  01:12:59  -6.1   -4.5     -5.00821     1      1      
iter:  26  01:13:01  -6.2   -4.4     -5.00812     1      1      
iter:  27  01:13:04  -6.3   -4.4     -5.00821     1      1      
iter:  28  01:13:06  -6.4   -4.3     -5.00805     2      1      
iter:  29  01:13:09  -6.5   -4.3     -5.00814     1      1      
iter:  30  01:13:11  -6.6   -4.3     -5.00834     1      1      
iter:  31  01:13:13  -6.8   -4.2     -5.00811     2      2      
iter:  32  01:13:16  -6.9   -4.3     -5.00812     2      1      
iter:  33  01:13:18  -6.9   -4.3     -5.00810     2      2      
iter:  34  01:13:21  -7.3   -4.4     -5.00814     2      1      
iter:  35  01:13:23  -7.6   -4.4     -5.00786     2      1      
iter:  36  01:13:26  -7.7   -4.5     -5.00804     2      2      
iter:  37  01:13:28  -7.9   -4.7     -5.00813     2      1      
iter:  38  01:13:31  -8.0   -4.7     -5.00819     2      1      
iter:  39  01:13:33  -8.1   -4.8     -5.00844     2      1      
iter:  40  01:13:35  -8.2   -5.2     -5.00826     2      1      
iter:  41  01:13:38  -8.6   -5.3     -5.00821     1      1      
iter:  42  01:13:40  -8.7   -5.4     -5.00817     1      1      
iter:  43  01:13:43  -8.9   -5.8     -5.00818     1      1      
iter:  44  01:13:45  -9.0   -6.0     -5.00820     1      1      
iter:  45  01:13:48  -9.3   -6.0     -5.00822     1      1      
------------------------------------
Converged After 45 Iterations.

Energy Contributions Relative to Reference Atom:(reference = -137098.12663)
-------------------------
Kinetic:         -7.45686
Potential:       +3.81117
External:        +0.00000
XC:              -1.55235
Entropy (-ST):   -0.06373
Local:           +0.22168
-------------------------
Free Energy:     -5.04008
Zero Kelvin:     -5.00822

Fermi Level: 11.72600


Total Charge:  -0.000000 electrons
Dipole Moment: [-1.09195146 -1.09195146 -1.09195146]

Memory estimate
---------------
Calculator  232.70 MiB
    Initial overhead  219.33 MiB
    Density  5.58 MiB
        Arrays  0.34 MiB
        Localized functions  4.52 MiB
        Mixer  0.08 MiB
        Interpolator  0.64 MiB
    Hamiltonian  2.07 MiB
        Arrays  0.22 MiB
        Restrictor  0.37 MiB
        XC 3D grid  0.11 MiB
        Poisson  1.03 MiB
        vbar  0.34 MiB
    Wavefunctions  5.73 MiB
        Arrays psit_nG  3.96 MiB
        Eigensolver  0.53 MiB
        Projectors  0.76 MiB
        Overlap op  0.40 MiB
        Kinetic operator  0.09 MiB

Positions:
  0 Pd    0.0000    0.0000    0.0000

                
                
                
                
       Pd       
                
                
                

Unit Cell:
           Periodic     X           Y           Z      Points  Spacing
  --------------------------------------------------------------------
  1. axis:    yes    0.000000    2.025000    2.025000    12     0.2386
  2. axis:    yes    2.025000    0.000000    2.025000    12     0.2386
  3. axis:    yes    2.025000    2.025000    0.000000    12     0.2386

Pd-setup:
  name   : Palladium
  id     : 4f14685b28dc139b452fc807c0398642
  Z      : 46
  valence: 10
  core   : 36
  charge : 0.0
  file   : /usr/share/gpaw-setups/Pd.LDA.gz
  cutoffs: 1.16(comp), 2.33(filt), 2.96(core), lmax=2
  valence states:
            energy   radius
    5s(0)   -3.604   1.217
    5p(0)   -0.356   1.323
    4d(10)  -4.308   1.164
    *s      23.608   1.217
    *p      26.855   1.323
    *d      22.904   1.164

Using partial waves for Pd as LCAO basis

Using the LDA Exchange-Correlation Functional.
Spin-Paired Calculation
Total Charge:      0.000000
Fermi Temperature: 0.100000
Mode: Finite-difference
Eigensolver:       rmm-diis
                   (3 nearest neighbors central finite-difference stencil)
Poisson Solver:    Jacobi 
                   (3 nearest neighbors central finite-difference stencil)
Interpolation:     6th Order
Reference Energy:  -137098.126630

Total number of cores used: 1
Diagonalizer layout: Serial LAPACK
Orthonormalizer layout: Serial LAPACK

Symmetries present: 48
10 k-points in the Irreducible Part of the Brillouin Zone (total: 64)
Linear Mixing Parameter:           0.1
Pulay Mixing with 3 Old Densities
Damping of Long Wave Oscillations: 50

Convergence Criteria:
Total Energy Change per Atom:           0.001 eV / atom
Integral of Absolute Density Change:    0.0001 electrons
Integral of Absolute Eigenstate Change: 1e-09
Number of Bands in Calculation:         15
Bands to Converge:                      Occupied States Only
Number of Valence Electrons:            10
                     log10-error:    Total        Iterations:
           Time      WFS    Density  Energy       Fermi  Poisson
iter:   1  01:13:57  +2.3            -5.80878     3      12     
iter:   2  01:13:59  -2.0            -6.19821     2             
iter:   3  01:14:00  -2.7            -6.24238     2             
iter:   4  01:14:03  -2.1   -0.9     -5.60449     8      7      
iter:   5  01:14:05  -1.2   -1.1     -4.84944     18     8      
iter:   6  01:14:07  -2.0   -1.9     -4.99761     8      7      
iter:   7  01:14:09  -2.5   -1.6     -4.95083     7      7      
iter:   8  01:14:11  -3.4   -3.0     -4.95887     3      4      
iter:   9  01:14:13  -3.7   -3.0     -4.96134     2      3      
iter:  10  01:14:15  -4.3   -2.9     -4.96194     2      4      
iter:  11  01:14:17  -4.5   -2.9     -4.96175     3      3      
iter:  12  01:14:20  -4.6   -3.0     -4.96221     2      4      
iter:  13  01:14:22  -4.8   -3.0     -4.96260     2      3      
iter:  14  01:14:24  -4.9   -3.0     -4.96229     3      3      
iter:  15  01:14:26  -5.0   -2.9     -4.96271     3      4      
iter:  16  01:14:28  -5.2   -3.0     -4.96279     2      3      
iter:  17  01:14:30  -5.3   -3.0     -4.96280     2      4      
iter:  18  01:14:32  -5.2   -3.2     -4.96266     3      4      
iter:  19  01:14:34  -5.6   -3.7     -4.96272     2      3      
iter:  20  01:14:36  -5.6   -3.7     -4.96270     2      2      
iter:  21  01:14:38  -5.8   -3.7     -4.96270     2      3      
iter:  22  01:14:40  -5.9   -3.8     -4.96277     1      2      
iter:  23  01:14:43  -6.1   -3.9     -4.96278     2      3      
iter:  24  01:14:45  -6.1   -4.1     -4.96275     2      2      
iter:  25  01:14:47  -6.3   -4.0     -4.96301     2      3      
iter:  26  01:14:49  -6.4   -4.3     -4.96272     2      2      
iter:  27  01:14:51  -6.5   -4.6     -4.96281     2      2      
iter:  28  01:14:53  -6.6   -4.7     -4.96263     1      1      
iter:  29  01:14:55  -6.7   -4.8     -4.96278     2      2      
iter:  30  01:14:57  -6.9   -4.9     -4.96305     2      1      
iter:  31  01:14:59  -7.0   -4.8     -4.96279     2      1      
iter:  32  01:15:01  -7.1   -4.9     -4.96279     1      1      
iter:  33  01:15:03  -7.2   -5.0     -4.96258     2      1      
iter:  34  01:15:05  -7.3   -5.0     -4.96300     2      1      
iter:  35  01:15:07  -7.3   -5.2     -4.96278     2      1      
iter:  36  01:15:10  -7.4   -5.3     -4.96289     1      1      
iter:  37  01:15:12  -7.5   -5.5     -4.96292     1      1      
iter:  38  01:15:14  -7.6   -5.8     -4.96288     1      1      
iter:  39  01:15:16  -7.7   -5.7     -4.96284     1      1      
iter:  40  01:15:18  -7.8   -5.9     -4.96281     1      1      
iter:  41  01:15:20  -7.9   -5.9     -4.96297     1      1      
iter:  42  01:15:22  -8.0   -5.7     -4.96284     1      1      
iter:  43  01:15:24  -8.1   -6.0     -4.96295     1      1      
iter:  44  01:15:26  -8.2   -5.5     -4.96286     1      1      
iter:  45  01:15:28  -8.3   -5.6     -4.96280     1      1      
iter:  46  01:15:30  -8.4   -6.2     -4.96285     1      1      
iter:  47  01:15:32  -8.5   -6.1     -4.96288     1      1      
iter:  48  01:15:34  -8.6   -5.9     -4.96290     1      1      
iter:  49  01:15:36  -8.7   -5.8     -4.96288     1      1      
iter:  50  01:15:39  -8.8   -5.9     -4.96287     1      1      
iter:  51  01:15:41  -8.9   -6.1     -4.96288     1      1      
iter:  52  01:15:43  -9.0   -6.3     -4.96289     1      1      
------------------------------------
Converged After 52 Iterations.

Energy Contributions Relative to Reference Atom:(reference = -137098.12663)
-------------------------
Kinetic:        -26.55873
Potential:      +19.83738
External:        +0.00000
XC:              +1.57696
Entropy (-ST):   -0.07186
Local:           +0.21743
-------------------------
Free Energy:     -4.99882
Zero Kelvin:     -4.96289

Fermi Level: 7.72010


Total Charge:  -0.000000 electrons
Dipole Moment: [-1.27471761 -1.27471761 -1.27471761]

Memory estimate
---------------
Calculator  233.38 MiB
    Initial overhead  219.33 MiB
    Density  6.12 MiB
        Arrays  0.34 MiB
        Localized functions  5.06 MiB
        Mixer  0.08 MiB
        Interpolator  0.64 MiB
    Hamiltonian  2.11 MiB
        Arrays  0.22 MiB
        Restrictor  0.37 MiB
        XC 3D grid  0.11 MiB
        Poisson  1.03 MiB
        vbar  0.38 MiB
    Wavefunctions  5.82 MiB
        Arrays psit_nG  3.96 MiB
        Eigensolver  0.53 MiB
        Projectors  0.85 MiB
        Overlap op  0.40 MiB
        Kinetic operator  0.09 MiB

Positions:
  0 Pd    0.0000    0.0000    0.0000

                
                
                
                
       Pd       
                
                
                

Unit Cell:
           Periodic     X           Y           Z      Points  Spacing
  --------------------------------------------------------------------
  1. axis:    yes    0.000000    1.950000    1.950000    12     0.2298
  2. axis:    yes    1.950000    0.000000    1.950000    12     0.2298
  3. axis:    yes    1.950000    1.950000    0.000000    12     0.2298

Pd-setup:
  name   : Palladium
  id     : 4f14685b28dc139b452fc807c0398642
  Z      : 46
  valence: 10
  core   : 36
  charge : 0.0
  file   : /usr/share/gpaw-setups/Pd.LDA.gz
  cutoffs: 1.16(comp), 2.33(filt), 2.96(core), lmax=2
  valence states:
            energy   radius
    5s(0)   -3.604   1.217
    5p(0)   -0.356   1.323
    4d(10)  -4.308   1.164
    *s      23.608   1.217
    *p      26.855   1.323
    *d      22.904   1.164

Using partial waves for Pd as LCAO basis

Using the LDA Exchange-Correlation Functional.
Spin-Paired Calculation
Total Charge:      0.000000
Fermi Temperature: 0.100000
Mode: Finite-difference
Eigensolver:       rmm-diis
                   (3 nearest neighbors central finite-difference stencil)
Poisson Solver:    Jacobi 
                   (3 nearest neighbors central finite-difference stencil)
Interpolation:     6th Order
Reference Energy:  -137098.126630

Total number of cores used: 1
Diagonalizer layout: Serial LAPACK
Orthonormalizer layout: Serial LAPACK

Symmetries present: 48
10 k-points in the Irreducible Part of the Brillouin Zone (total: 64)
Linear Mixing Parameter:           0.1
Pulay Mixing with 3 Old Densities
Damping of Long Wave Oscillations: 50

Convergence Criteria:
Total Energy Change per Atom:           0.001 eV / atom
Integral of Absolute Density Change:    0.0001 electrons
Integral of Absolute Eigenstate Change: 1e-09
Number of Bands in Calculation:         15
Bands to Converge:                      Occupied States Only
Number of Valence Electrons:            10
                     log10-error:    Total        Iterations:
           Time      WFS    Density  Energy       Fermi  Poisson
iter:   1  01:15:53  +2.4            -5.76619     4      12     
iter:   2  01:15:55  -1.9            -6.23896     3             
iter:   3  01:15:57  -2.5            -6.29743     2             
iter:   4  01:15:59  -2.1   -1.0     -5.73713     7      7      
iter:   5  01:16:02  -1.1   -1.1     -4.98527     18     8      
iter:   6  01:16:04  -1.9   -1.9     -5.13394     9      7      
iter:   7  01:16:06  -2.4   -1.6     -5.08643     7      7      
iter:   8  01:16:09  -3.3   -3.0     -5.09380     2      3      
iter:   9  01:16:11  -3.7   -3.0     -5.09621     2      3      
iter:  10  01:16:13  -4.1   -2.9     -5.09706     3      4      
iter:  11  01:16:15  -4.4   -2.9     -5.09710     2      3      
iter:  12  01:16:18  -4.5   -2.9     -5.09739     2      4      
iter:  13  01:16:20  -4.7   -2.9     -5.09799     2      3      
iter:  14  01:16:22  -4.7   -2.9     -5.09751     3      4      
iter:  15  01:16:24  -5.0   -3.0     -5.09786     2      4      
iter:  16  01:16:27  -4.9   -2.9     -5.09799     2      3      
iter:  17  01:16:29  -5.3   -2.9     -5.09787     1      3      
iter:  18  01:16:31  -5.3   -3.0     -5.09797     2      5      
iter:  19  01:16:34  -5.6   -3.3     -5.09811     2      4      
iter:  20  01:16:36  -5.6   -3.2     -5.09790     2      4      
iter:  21  01:16:38  -5.8   -4.0     -5.09793     2      2      
iter:  22  01:16:40  -5.9   -4.0     -5.09789     2      3      
iter:  23  01:16:43  -6.1   -4.0     -5.09813     2      2      
iter:  24  01:16:45  -6.1   -4.2     -5.09812     2      1      
iter:  25  01:16:47  -6.3   -4.4     -5.09805     2      1      
iter:  26  01:16:49  -6.4   -4.6     -5.09799     2      1      
iter:  27  01:16:52  -6.6   -4.9     -5.09802     2      1      
iter:  28  01:16:54  -6.7   -4.9     -5.09807     1      1      
iter:  29  01:16:56  -6.8   -4.8     -5.09796     2      1      
iter:  30  01:16:58  -6.9   -4.9     -5.09807     2      1      
iter:  31  01:17:00  -7.1   -4.8     -5.09805     2      1      
iter:  32  01:17:03  -7.2   -4.8     -5.09800     2      1      
iter:  33  01:17:05  -7.3   -4.8     -5.09805     2      1      
iter:  34  01:17:07  -7.4   -4.8     -5.09787     2      1      
iter:  35  01:17:09  -7.6   -4.9     -5.09780     1      1      
iter:  36  01:17:12  -7.7   -5.1     -5.09792     2      1      
iter:  37  01:17:14  -7.9   -5.3     -5.09800     1      1      
iter:  38  01:17:16  -8.0   -5.3     -5.09804     1      1      
iter:  39  01:17:18  -8.2   -5.5     -5.09804     1      1      
iter:  40  01:17:21  -8.4   -5.6     -5.09800     2      1      
iter:  41  01:17:23  -8.6   -5.6     -5.09809     1      1      
iter:  42  01:17:25  -8.8   -5.7     -5.09807     1      1      
iter:  43  01:17:27  -8.9   -5.5     -5.09808     1      1      
iter:  44  01:17:30  -9.0   -5.8     -5.09808     1      1      
------------------------------------
Converged After 44 Iterations.

Energy Contributions Relative to Reference Atom:(reference = -137098.12663)
-------------------------
Kinetic:        -19.44487
Potential:      +13.89386
External:        +0.00000
XC:              +0.26782
Entropy (-ST):   -0.06740
Local:           +0.21882
-------------------------
Free Energy:     -5.13178
Zero Kelvin:     -5.09808

Fermi Level: 9.55073


Total Charge:  -0.000000 electrons
Dipole Moment: [-1.18236599 -1.18236599 -1.18236599]

Memory estimate
---------------
Calculator  232.70 MiB
    Initial overhead  219.33 MiB
    Density  5.58 MiB
        Arrays  0.34 MiB
        Localized functions  4.52 MiB
        Mixer  0.08 MiB
        Interpolator  0.64 MiB
    Hamiltonian  2.07 MiB
        Arrays  0.22 MiB
        Restrictor  0.37 MiB
        XC 3D grid  0.11 MiB
        Poisson  1.03 MiB
        vbar  0.34 MiB
    Wavefunctions  5.73 MiB
        Arrays psit_nG  3.96 MiB
        Eigensolver  0.53 MiB
        Projectors  0.76 MiB
        Overlap op  0.40 MiB
        Kinetic operator  0.09 MiB

Positions:
  0 Pd    0.0000    0.0000    0.0000

                
                
                
                
       Pd       
                
                
                

Unit Cell:
           Periodic     X           Y           Z      Points  Spacing
  --------------------------------------------------------------------
  1. axis:    yes    0.000000    2.025000    2.025000    12     0.2386
  2. axis:    yes    2.025000    0.000000    2.025000    12     0.2386
  3. axis:    yes    2.025000    2.025000    0.000000    12     0.2386

Pd-setup:
  name   : Palladium
  id     : 4f14685b28dc139b452fc807c0398642
  Z      : 46
  valence: 10
  core   : 36
  charge : 0.0
  file   : /usr/share/gpaw-setups/Pd.LDA.gz
  cutoffs: 1.16(comp), 2.33(filt), 2.96(core), lmax=2
  valence states:
            energy   radius
    5s(0)   -3.604   1.217
    5p(0)   -0.356   1.323
    4d(10)  -4.308   1.164
    *s      23.608   1.217
    *p      26.855   1.323
    *d      22.904   1.164

Using partial waves for Pd as LCAO basis

Using the LDA Exchange-Correlation Functional.
Spin-Paired Calculation
Total Charge:      0.000000
Fermi Temperature: 0.100000
Mode: Finite-difference
Eigensolver:       rmm-diis
                   (3 nearest neighbors central finite-difference stencil)
Poisson Solver:    Jacobi 
                   (3 nearest neighbors central finite-difference stencil)
Interpolation:     6th Order
Reference Energy:  -137098.126630

Total number of cores used: 1
Diagonalizer layout: Serial LAPACK
Orthonormalizer layout: Serial LAPACK

Symmetries present: 48
10 k-points in the Irreducible Part of the Brillouin Zone (total: 64)
Linear Mixing Parameter:           0.1
Pulay Mixing with 3 Old Densities
Damping of Long Wave Oscillations: 50

Convergence Criteria:
Total Energy Change per Atom:           0.001 eV / atom
Integral of Absolute Density Change:    0.0001 electrons
Integral of Absolute Eigenstate Change: 1e-09
Number of Bands in Calculation:         15
Bands to Converge:                      Occupied States Only
Number of Valence Electrons:            10
                     log10-error:    Total        Iterations:
           Time      WFS    Density  Energy       Fermi  Poisson
iter:   1  01:17:38  +2.3            -5.80878     3      12     
iter:   2  01:17:40  -2.0            -6.19821     2             
iter:   3  01:17:42  -2.7            -6.24238     2             
iter:   4  01:17:44  -2.1   -0.9     -5.60449     8      7      
iter:   5  01:17:47  -1.2   -1.1     -4.84944     18     8      
iter:   6  01:17:49  -2.0   -1.9     -4.99761     8      7      
iter:   7  01:17:51  -2.5   -1.6     -4.95083     7      7      
iter:   8  01:17:53  -3.4   -3.0     -4.95887     3      4      
iter:   9  01:17:55  -3.7   -3.0     -4.96134     2      3      
iter:  10  01:17:57  -4.3   -2.9     -4.96194     2      4      
iter:  11  01:17:59  -4.5   -2.9     -4.96175     3      3      
iter:  12  01:18:01  -4.6   -3.0     -4.96221     2      4      
iter:  13  01:18:03  -4.8   -3.0     -4.96260     2      3      
iter:  14  01:18:06  -4.9   -3.0     -4.96229     3      3      
iter:  15  01:18:08  -5.0   -2.9     -4.96271     3      4      
iter:  16  01:18:10  -5.2   -3.0     -4.96279     2      3      
iter:  17  01:18:12  -5.3   -3.0     -4.96280     2      4      
iter:  18  01:18:14  -5.2   -3.2     -4.96266     3      4      
iter:  19  01:18:16  -5.6   -3.7     -4.96272     2      3      
iter:  20  01:18:18  -5.6   -3.7     -4.96270     2      2      
iter:  21  01:18:20  -5.8   -3.7     -4.96270     2      3      
iter:  22  01:18:22  -5.9   -3.8     -4.96277     1      2      
iter:  23  01:18:24  -6.1   -3.9     -4.96278     2      3      
iter:  24  01:18:26  -6.1   -4.1     -4.96275     2      2      
iter:  25  01:18:29  -6.3   -4.0     -4.96301     2      3      
iter:  26  01:18:31  -6.4   -4.3     -4.96272     2      2      
iter:  27  01:18:33  -6.5   -4.6     -4.96281     2      2      
iter:  28  01:18:35  -6.6   -4.7     -4.96263     1      1      
iter:  29  01:18:37  -6.7   -4.8     -4.96278     2      2      
iter:  30  01:18:39  -6.9   -4.9     -4.96305     2      1      
iter:  31  01:18:41  -7.0   -4.8     -4.96279     2      1      
iter:  32  01:18:43  -7.1   -4.9     -4.96279     1      1      
iter:  33  01:18:45  -7.2   -5.0     -4.96258     2      1      
iter:  34  01:18:47  -7.3   -5.0     -4.96300     2      1      
iter:  35  01:18:49  -7.3   -5.2     -4.96278     2      1      
iter:  36  01:18:51  -7.4   -5.3     -4.96289     1      1      
iter:  37  01:18:53  -7.5   -5.5     -4.96292     1      1      
iter:  38  01:18:55  -7.6   -5.8     -4.96288     1      1      
iter:  39  01:18:58  -7.7   -5.7     -4.96284     1      1      
iter:  40  01:19:00  -7.8   -5.9     -4.96281     1      1      
iter:  41  01:19:02  -7.9   -5.9     -4.96297     1      1      
iter:  42  01:19:04  -8.0   -5.7     -4.96284     1      1      
iter:  43  01:19:06  -8.1   -6.0     -4.96295     1      1      
iter:  44  01:19:08  -8.2   -5.5     -4.96286     1      1      
iter:  45  01:19:10  -8.3   -5.6     -4.96280     1      1      
iter:  46  01:19:12  -8.4   -6.2     -4.96285     1      1      
iter:  47  01:19:14  -8.5   -6.1     -4.96288     1      1      
iter:  48  01:19:16  -8.6   -5.9     -4.96290     1      1      
iter:  49  01:19:18  -8.7   -5.8     -4.96288     1      1      
iter:  50  01:19:20  -8.8   -5.9     -4.96287     1      1      
iter:  51  01:19:22  -8.9   -6.1     -4.96288     1      1      
iter:  52  01:19:24  -9.0   -6.3     -4.96289     1      1      
------------------------------------
Converged After 52 Iterations.

Energy Contributions Relative to Reference Atom:(reference = -137098.12663)
-------------------------
Kinetic:        -26.55873
Potential:      +19.83738
External:        +0.00000
XC:              +1.57696
Entropy (-ST):   -0.07186
Local:           +0.21743
-------------------------
Free Energy:     -4.99882
Zero Kelvin:     -4.96289

Fermi Level: 7.72010


Total Charge:  -0.000000 electrons
Dipole Moment: [-1.27471761 -1.27471761 -1.27471761]

Memory estimate
---------------
Calculator  233.75 MiB
    Initial overhead  219.33 MiB
    Density  6.43 MiB
        Arrays  0.34 MiB
        Localized functions  5.37 MiB
        Mixer  0.08 MiB
        Interpolator  0.64 MiB
    Hamiltonian  2.13 MiB
        Arrays  0.22 MiB
        Restrictor  0.37 MiB
        XC 3D grid  0.11 MiB
        Poisson  1.03 MiB
        vbar  0.40 MiB
    Wavefunctions  5.87 MiB
        Arrays psit_nG  3.96 MiB
        Eigensolver  0.53 MiB
        Projectors  0.90 MiB
        Overlap op  0.40 MiB
        Kinetic operator  0.09 MiB

Positions:
  0 Pd    0.0000    0.0000    0.0000

                
                
                
                
       Pd       
                
                
                

Unit Cell:
           Periodic     X           Y           Z      Points  Spacing
  --------------------------------------------------------------------
  1. axis:    yes    0.000000    1.912500    1.912500    12     0.2254
  2. axis:    yes    1.912500    0.000000    1.912500    12     0.2254
  3. axis:    yes    1.912500    1.912500    0.000000    12     0.2254

Pd-setup:
  name   : Palladium
  id     : 4f14685b28dc139b452fc807c0398642
  Z      : 46
  valence: 10
  core   : 36
  charge : 0.0
  file   : /usr/share/gpaw-setups/Pd.LDA.gz
  cutoffs: 1.16(comp), 2.33(filt), 2.96(core), lmax=2
  valence states:
            energy   radius
    5s(0)   -3.604   1.217
    5p(0)   -0.356   1.323
    4d(10)  -4.308   1.164
    *s      23.608   1.217
    *p      26.855   1.323
    *d      22.904   1.164

Using partial waves for Pd as LCAO basis

Using the LDA Exchange-Correlation Functional.
Spin-Paired Calculation
Total Charge:      0.000000
Fermi Temperature: 0.100000
Mode: Finite-difference
Eigensolver:       rmm-diis
                   (3 nearest neighbors central finite-difference stencil)
Poisson Solver:    Jacobi 
                   (3 nearest neighbors central finite-difference stencil)
Interpolation:     6th Order
Reference Energy:  -137098.126630

Total number of cores used: 1
Diagonalizer layout: Serial LAPACK
Orthonormalizer layout: Serial LAPACK

Symmetries present: 48
10 k-points in the Irreducible Part of the Brillouin Zone (total: 64)
Linear Mixing Parameter:           0.1
Pulay Mixing with 3 Old Densities
Damping of Long Wave Oscillations: 50

Convergence Criteria:
Total Energy Change per Atom:           0.001 eV / atom
Integral of Absolute Density Change:    0.0001 electrons
Integral of Absolute Eigenstate Change: 1e-09
Number of Bands in Calculation:         15
Bands to Converge:                      Occupied States Only
Number of Valence Electrons:            10
                     log10-error:    Total        Iterations:
           Time      WFS    Density  Energy       Fermi  Poisson
iter:   1  01:19:35  +2.5            -5.65277     4      12     
iter:   2  01:19:38  -1.8            -6.16537     3             
iter:   3  01:19:40  -2.5            -6.23124     2             
iter:   4  01:19:42  -2.1   -1.0     -5.71592     7      7      
iter:   5  01:19:45  -1.1   -1.1     -4.97970     18     8      
iter:   6  01:19:47  -2.0   -2.0     -5.11345     8      7      
iter:   7  01:19:50  -2.6   -1.7     -5.07814     6      7      
iter:   8  01:19:52  -3.4   -3.0     -5.08391     2      3      
iter:   9  01:19:54  -3.7   -3.0     -5.08601     2      3      
iter:  10  01:19:57  -4.0   -2.9     -5.08698     3      4      
iter:  11  01:19:59  -4.3   -2.8     -5.08721     2      3      
iter:  12  01:20:01  -4.4   -2.8     -5.08740     2      4      
iter:  13  01:20:04  -4.5   -2.9     -5.08790     3      4      
iter:  14  01:20:06  -4.5   -2.8     -5.08742     2      4      
iter:  15  01:20:09  -4.9   -2.9     -5.08788     2      4      
iter:  16  01:20:11  -5.1   -2.9     -5.08785     2      3      
iter:  17  01:20:13  -4.7   -3.0     -5.08813     3      5      
iter:  18  01:20:16  -5.3   -3.1     -5.08798     2      3      
iter:  19  01:20:18  -4.8   -3.1     -5.08786     2      4      
iter:  20  01:20:20  -5.6   -3.6     -5.08830     2      3      
iter:  21  01:20:23  -5.7   -3.8     -5.08800     2      3      
iter:  22  01:20:25  -5.9   -4.0     -5.08801     1      2      
iter:  23  01:20:27  -6.0   -4.4     -5.08816     2      1      
iter:  24  01:20:30  -6.1   -4.5     -5.08808     1      1      
iter:  25  01:20:32  -6.1   -4.4     -5.08831     2      2      
iter:  26  01:20:35  -6.4   -4.1     -5.08807     2      1      
iter:  27  01:20:37  -6.5   -4.2     -5.08797     2      2      
iter:  28  01:20:39  -6.6   -4.4     -5.08787     1      2      
iter:  29  01:20:42  -6.8   -4.9     -5.08813     1      1      
iter:  30  01:20:44  -6.9   -4.9     -5.08821     2      2      
iter:  31  01:20:46  -7.0   -4.5     -5.08803     2      2      
iter:  32  01:20:49  -7.3   -5.1     -5.08817     2      1      
iter:  33  01:20:51  -7.4   -5.1     -5.08806     2      2      
iter:  34  01:20:53  -7.6   -4.9     -5.08835     2      1      
iter:  35  01:20:56  -7.8   -5.2     -5.08825     1      1      
iter:  36  01:20:58  -8.0   -5.3     -5.08816     1      1      
iter:  37  01:21:00  -8.1   -5.3     -5.08813     1      1      
iter:  38  01:21:03  -8.1   -5.4     -5.08811     1      1      
iter:  39  01:21:05  -7.4   -5.5     -5.08820     1      1      
iter:  40  01:21:07  -8.8   -5.3     -5.08812     1      1      
iter:  41  01:21:10  -9.2   -5.7     -5.08817     1      1      
------------------------------------
Converged After 41 Iterations.

Energy Contributions Relative to Reference Atom:(reference = -137098.12663)
-------------------------
Kinetic:        -14.13629
Potential:       +9.43382
External:        +0.00000
XC:              -0.57145
Entropy (-ST):   -0.06550
Local:           +0.21850
-------------------------
Free Energy:     -5.12092
Zero Kelvin:     -5.08817

Fermi Level: 10.59124


Total Charge:  -0.000000 electrons
Dipole Moment: [-1.13693115 -1.13693115 -1.13693115]

Memory estimate
---------------
Calculator  233.03 MiB
    Initial overhead  219.33 MiB
    Density  5.84 MiB
        Arrays  0.34 MiB
        Localized functions  4.78 MiB
        Mixer  0.08 MiB
        Interpolator  0.64 MiB
    Hamiltonian  2.09 MiB
        Arrays  0.22 MiB
        Restrictor  0.37 MiB
        XC 3D grid  0.11 MiB
        Poisson  1.03 MiB
        vbar  0.36 MiB
    Wavefunctions  5.77 MiB
        Arrays psit_nG  3.96 MiB
        Eigensolver  0.53 MiB
        Projectors  0.80 MiB
        Overlap op  0.40 MiB
        Kinetic operator  0.09 MiB

Positions:
  0 Pd    0.0000    0.0000    0.0000

                
                
                
                
       Pd       
                
                
                

Unit Cell:
           Periodic     X           Y           Z      Points  Spacing
  --------------------------------------------------------------------
  1. axis:    yes    0.000000    1.987500    1.987500    12     0.2342
  2. axis:    yes    1.987500    0.000000    1.987500    12     0.2342
  3. axis:    yes    1.987500    1.987500    0.000000    12     0.2342

Pd-setup:
  name   : Palladium
  id     : 4f14685b28dc139b452fc807c0398642
  Z      : 46
  valence: 10
  core   : 36
  charge : 0.0
  file   : /usr/share/gpaw-setups/Pd.LDA.gz
  cutoffs: 1.16(comp), 2.33(filt), 2.96(core), lmax=2
  valence states:
            energy   radius
    5s(0)   -3.604   1.217
    5p(0)   -0.356   1.323
    4d(10)  -4.308   1.164
    *s      23.608   1.217
    *p      26.855   1.323
    *d      22.904   1.164

Using partial waves for Pd as LCAO basis

Using the LDA Exchange-Correlation Functional.
Spin-Paired Calculation
Total Charge:      0.000000
Fermi Temperature: 0.100000
Mode: Finite-difference
Eigensolver:       rmm-diis
                   (3 nearest neighbors central finite-difference stencil)
Poisson Solver:    Jacobi 
                   (3 nearest neighbors central finite-difference stencil)
Interpolation:     6th Order
Reference Energy:  -137098.126630

Total number of cores used: 1
Diagonalizer layout: Serial LAPACK
Orthonormalizer layout: Serial LAPACK

Symmetries present: 48
10 k-points in the Irreducible Part of the Brillouin Zone (total: 64)
Linear Mixing Parameter:           0.1
Pulay Mixing with 3 Old Densities
Damping of Long Wave Oscillations: 50

Convergence Criteria:
Total Energy Change per Atom:           0.001 eV / atom
Integral of Absolute Density Change:    0.0001 electrons
Integral of Absolute Eigenstate Change: 1e-09
Number of Bands in Calculation:         15
Bands to Converge:                      Occupied States Only
Number of Valence Electrons:            10
                     log10-error:    Total        Iterations:
           Time      WFS    Density  Energy       Fermi  Poisson
iter:   1  01:21:19  +2.4            -5.81258     3      12     
iter:   2  01:21:21  -2.0            -6.24434     3             
iter:   3  01:21:23  -2.6            -6.29555     2             
iter:   4  01:21:26  -2.1   -1.0     -5.69378     7      7      
iter:   5  01:21:28  -1.1   -1.1     -4.93435     18     8      
iter:   6  01:21:30  -1.9   -1.9     -5.09083     9      7      
iter:   7  01:21:32  -2.4   -1.6     -5.03790     7      7      
iter:   8  01:21:34  -3.3   -3.0     -5.04631     2      4      
iter:   9  01:21:37  -3.7   -3.0     -5.04873     2      3      
iter:  10  01:21:39  -4.2   -2.9     -5.04947     3      4      
iter:  11  01:21:41  -4.4   -2.9     -5.04938     2      3      
iter:  12  01:21:43  -4.5   -2.9     -5.04977     2      4      
iter:  13  01:21:45  -4.7   -3.0     -5.05025     2      3      
iter:  14  01:21:48  -4.8   -2.9     -5.04996     3      4      
iter:  15  01:21:50  -5.0   -2.9     -5.05028     3      4      
iter:  16  01:21:52  -5.1   -2.9     -5.05052     2      3      
iter:  17  01:21:54  -5.4   -2.9     -5.05026     2      3      
iter:  18  01:21:56  -5.1   -3.0     -5.05036     2      5      
iter:  19  01:21:58  -5.5   -3.2     -5.05048     2      4      
iter:  20  01:22:01  -5.6   -3.2     -5.05030     2      4      
iter:  21  01:22:03  -5.9   -3.7     -5.05014     2      2      
iter:  22  01:22:05  -5.9   -3.8     -5.05023     2      3      
iter:  23  01:22:07  -6.1   -4.0     -5.05058     2      2      
iter:  24  01:22:09  -6.2   -4.1     -5.05031     2      2      
iter:  25  01:22:11  -6.4   -4.3     -5.05023     2      2      
iter:  26  01:22:14  -6.5   -4.4     -5.05043     2      1      
iter:  27  01:22:16  -6.7   -4.4     -5.05045     2      2      
iter:  28  01:22:18  -6.8   -4.5     -5.05031     2      1      
iter:  29  01:22:20  -6.9   -4.8     -5.05038     2      1      
iter:  30  01:22:22  -7.0   -4.7     -5.05042     2      1      
iter:  31  01:22:24  -7.2   -4.7     -5.05035     2      1      
iter:  32  01:22:27  -7.3   -4.8     -5.05046     2      1      
iter:  33  01:22:29  -7.5   -4.7     -5.05031     2      2      
iter:  34  01:22:31  -7.7   -4.6     -5.05054     2      1      
iter:  35  01:22:33  -7.8   -4.9     -5.05038     2      1      
iter:  36  01:22:35  -8.0   -5.3     -5.05036     2      1      
iter:  37  01:22:37  -8.2   -5.8     -5.05042     1      1      
iter:  38  01:22:39  -8.3   -5.8     -5.05042     2      1      
iter:  39  01:22:42  -8.5   -5.6     -5.05042     1      1      
iter:  40  01:22:44  -8.7   -5.7     -5.05043     1      1      
iter:  41  01:22:46  -8.9   -5.7     -5.05040     1      1      
iter:  42  01:22:48  -9.0   -5.9     -5.05039     1      1      
------------------------------------
Converged After 42 Iterations.

Energy Contributions Relative to Reference Atom:(reference = -137098.12663)
-------------------------
Kinetic:        -23.50171
Potential:      +17.29020
External:        +0.00000
XC:              +0.97825
Entropy (-ST):   -0.06951
Local:           +0.21763
-------------------------
Free Energy:     -5.08514
Zero Kelvin:     -5.05039

Fermi Level: 8.59629


Total Charge:  -0.000000 electrons
Dipole Moment: [-1.22828753 -1.22828753 -1.22828753]

Memory estimate
---------------
Calculator  233.56 MiB
    Initial overhead  219.33 MiB
    Density  6.27 MiB
        Arrays  0.34 MiB
        Localized functions  5.21 MiB
        Mixer  0.08 MiB
        Interpolator  0.64 MiB
    Hamiltonian  2.12 MiB
        Arrays  0.22 MiB
        Restrictor  0.37 MiB
        XC 3D grid  0.11 MiB
        Poisson  1.03 MiB
        vbar  0.39 MiB
    Wavefunctions  5.84 MiB
        Arrays psit_nG  3.96 MiB
        Eigensolver  0.53 MiB
        Projectors  0.87 MiB
        Overlap op  0.40 MiB
        Kinetic operator  0.09 MiB

Positions:
  0 Pd    0.0000    0.0000    0.0000

                
                
                
                
       Pd       
                
                
                

Unit Cell:
           Periodic     X           Y           Z      Points  Spacing
  --------------------------------------------------------------------
  1. axis:    yes    0.000000    1.931250    1.931250    12     0.2276
  2. axis:    yes    1.931250    0.000000    1.931250    12     0.2276
  3. axis:    yes    1.931250    1.931250    0.000000    12     0.2276

Pd-setup:
  name   : Palladium
  id     : 4f14685b28dc139b452fc807c0398642
  Z      : 46
  valence: 10
  core   : 36
  charge : 0.0
  file   : /usr/share/gpaw-setups/Pd.LDA.gz
  cutoffs: 1.16(comp), 2.33(filt), 2.96(core), lmax=2
  valence states:
            energy   radius
    5s(0)   -3.604   1.217
    5p(0)   -0.356   1.323
    4d(10)  -4.308   1.164
    *s      23.608   1.217
    *p      26.855   1.323
    *d      22.904   1.164

Using partial waves for Pd as LCAO basis

Using the LDA Exchange-Correlation Functional.
Spin-Paired Calculation
Total Charge:      0.000000
Fermi Temperature: 0.100000
Mode: Finite-difference
Eigensolver:       rmm-diis
                   (3 nearest neighbors central finite-difference stencil)
Poisson Solver:    Jacobi 
                   (3 nearest neighbors central finite-difference stencil)
Interpolation:     6th Order
Reference Energy:  -137098.126630

Total number of cores used: 1
Diagonalizer layout: Serial LAPACK
Orthonormalizer layout: Serial LAPACK

Symmetries present: 48
10 k-points in the Irreducible Part of the Brillouin Zone (total: 64)
Linear Mixing Parameter:           0.1
Pulay Mixing with 3 Old Densities
Damping of Long Wave Oscillations: 50

Convergence Criteria:
Total Energy Change per Atom:           0.001 eV / atom
Integral of Absolute Density Change:    0.0001 electrons
Integral of Absolute Eigenstate Change: 1e-09
Number of Bands in Calculation:         15
Bands to Converge:                      Occupied States Only
Number of Valence Electrons:            10
                     log10-error:    Total        Iterations:
           Time      WFS    Density  Energy       Fermi  Poisson
iter:   1  01:22:59  +2.4            -5.71921     4      12     
iter:   2  01:23:01  -1.8            -6.21157     3             
iter:   3  01:23:03  -2.5            -6.27364     2             
iter:   4  01:23:05  -2.1   -1.0     -5.73543     7      7      
iter:   5  01:23:08  -1.1   -1.1     -4.99323     18     8      
iter:   6  01:23:10  -2.0   -2.0     -5.13286     9      7      
iter:   7  01:23:13  -2.5   -1.6     -5.09030     6      7      
iter:   8  01:23:15  -3.3   -3.0     -5.09684     2      3      
iter:   9  01:23:17  -3.7   -3.0     -5.09914     2      3      
iter:  10  01:23:20  -4.1   -2.9     -5.10004     3      4      
iter:  11  01:23:22  -4.3   -2.9     -5.10015     2      3      
iter:  12  01:23:24  -4.4   -2.8     -5.10044     2      4      
iter:  13  01:23:27  -4.6   -2.9     -5.10087     2      4      
iter:  14  01:23:29  -4.6   -2.8     -5.10049     2      4      
iter:  15  01:23:31  -5.0   -3.0     -5.10091     2      4      
iter:  16  01:23:34  -4.9   -2.9     -5.10095     2      3      
iter:  17  01:23:36  -5.2   -2.9     -5.10099     2      3      
iter:  18  01:23:38  -5.3   -3.0     -5.10115     2      5      
iter:  19  01:23:41  -5.3   -3.2     -5.10088     2      3      
iter:  20  01:23:43  -5.5   -3.3     -5.10090     2      3      
iter:  21  01:23:45  -5.7   -3.4     -5.10102     2      3      
iter:  22  01:23:48  -5.9   -3.5     -5.10103     2      3      
iter:  23  01:23:50  -6.0   -3.7     -5.10120     2      3      
iter:  24  01:23:52  -6.2   -3.8     -5.10087     2      2      
iter:  25  01:23:55  -6.2   -4.0     -5.10103     2      3      
iter:  26  01:23:57  -6.4   -4.2     -5.10125     2      1      
iter:  27  01:23:59  -6.5   -4.3     -5.10087     2      1      
iter:  28  01:24:01  -6.6   -4.3     -5.10093     2      2      
iter:  29  01:24:04  -6.8   -4.4     -5.10124     2      1      
iter:  30  01:24:06  -6.9   -4.4     -5.10119     2      1      
iter:  31  01:24:08  -7.0   -4.6     -5.10113     2      1      
iter:  32  01:24:11  -7.2   -5.3     -5.10116     1      1      
iter:  33  01:24:13  -7.3   -5.3     -5.10114     1      1      
iter:  34  01:24:15  -7.4   -5.2     -5.10114     1      1      
iter:  35  01:24:18  -7.6   -5.1     -5.10115     1      1      
iter:  36  01:24:20  -7.8   -5.1     -5.10118     1      1      
iter:  37  01:24:22  -7.9   -5.1     -5.10118     1      1      
iter:  38  01:24:25  -8.1   -5.1     -5.10101     1      1      
iter:  39  01:24:27  -8.3   -4.9     -5.10123     2      1      
iter:  40  01:24:29  -8.4   -5.1     -5.10124     2      1      
iter:  41  01:24:31  -8.6   -5.0     -5.10114     1      1      
iter:  42  01:24:34  -8.6   -5.0     -5.10095     2      1      
iter:  43  01:24:36  -8.9   -5.4     -5.10112     1      1      
iter:  44  01:24:38  -7.6   -5.5     -5.10109     1      1      
iter:  45  01:24:41  -9.4   -5.5     -5.10110     2      1      
------------------------------------
Converged After 45 Iterations.

Energy Contributions Relative to Reference Atom:(reference = -137098.12663)
-------------------------
Kinetic:        -16.94958
Potential:      +11.79817
External:        +0.00000
XC:              -0.13507
Entropy (-ST):   -0.06643
Local:           +0.21859
-------------------------
Free Energy:     -5.13431
Zero Kelvin:     -5.10110

Fermi Level: 10.05973


Total Charge:  0.000000 electrons
Dipole Moment: [-1.1595899 -1.1595899 -1.1595899]

Memory estimate
---------------
Calculator  235.83 MiB
    Initial overhead  221.41 MiB
    Density  6.43 MiB
        Arrays  0.34 MiB
        Localized functions  5.37 MiB
        Mixer  0.08 MiB
        Interpolator  0.64 MiB
    Hamiltonian  2.13 MiB
        Arrays  0.22 MiB
        Restrictor  0.37 MiB
        XC 3D grid  0.11 MiB
        Poisson  1.03 MiB
        vbar  0.40 MiB
    Wavefunctions  5.87 MiB
        Arrays psit_nG  3.96 MiB
        Eigensolver  0.53 MiB
        Projectors  0.90 MiB
        Overlap op  0.40 MiB
        Kinetic operator  0.09 MiB

Positions:
  0 Pd    0.0000    0.0000    0.0000

                
                
                
                
       Pd       
                
                
                

Unit Cell:
           Periodic     X           Y           Z      Points  Spacing
  --------------------------------------------------------------------
  1. axis:    yes    0.000000    1.912500    1.912500    12     0.2254
  2. axis:    yes    1.912500    0.000000    1.912500    12     0.2254
  3. axis:    yes    1.912500    1.912500    0.000000    12     0.2254

Pd-setup:
  name   : Palladium
  id     : 4f14685b28dc139b452fc807c0398642
  Z      : 46
  valence: 10
  core   : 36
  charge : 0.0
  file   : /usr/share/gpaw-setups/Pd.LDA.gz
  cutoffs: 1.16(comp), 2.33(filt), 2.96(core), lmax=2
  valence states:
            energy   radius
    5s(0)   -3.604   1.217
    5p(0)   -0.356   1.323
    4d(10)  -4.308   1.164
    *s      23.608   1.217
    *p      26.855   1.323
    *d      22.904   1.164

Using partial waves for Pd as LCAO basis

Using the LDA Exchange-Correlation Functional.
Spin-Paired Calculation
Total Charge:      0.000000
Fermi Temperature: 0.100000
Mode: Finite-difference
Eigensolver:       rmm-diis
                   (3 nearest neighbors central finite-difference stencil)
Poisson Solver:    Jacobi 
                   (3 nearest neighbors central finite-difference stencil)
Interpolation:     6th Order
Reference Energy:  -137098.126630

Total number of cores used: 1
Diagonalizer layout: Serial LAPACK
Orthonormalizer layout: Serial LAPACK

Symmetries present: 48
10 k-points in the Irreducible Part of the Brillouin Zone (total: 64)
Linear Mixing Parameter:           0.1
Pulay Mixing with 3 Old Densities
Damping of Long Wave Oscillations: 50

Convergence Criteria:
Total Energy Change per Atom:           0.001 eV / atom
Integral of Absolute Density Change:    0.0001 electrons
Integral of Absolute Eigenstate Change: 1e-09
Number of Bands in Calculation:         15
Bands to Converge:                      Occupied States Only
Number of Valence Electrons:            10
                     log10-error:    Total        Iterations:
           Time      WFS    Density  Energy       Fermi  Poisson
iter:   1  01:24:52  +2.5            -5.65277     4      12     
iter:   2  01:24:54  -1.8            -6.16537     3             
iter:   3  01:24:56  -2.5            -6.23124     2             
iter:   4  01:24:59  -2.1   -1.0     -5.71592     7      7      
iter:   5  01:25:01  -1.1   -1.1     -4.97970     18     8      
iter:   6  01:25:03  -2.0   -2.0     -5.11345     8      7      
iter:   7  01:25:06  -2.6   -1.7     -5.07814     6      7      
iter:   8  01:25:08  -3.4   -3.0     -5.08391     2      3      
iter:   9  01:25:11  -3.7   -3.0     -5.08601     2      3      
iter:  10  01:25:13  -4.0   -2.9     -5.08698     3      4      
iter:  11  01:25:15  -4.3   -2.8     -5.08721     2      3      
iter:  12  01:25:18  -4.4   -2.8     -5.08740     2      4      
iter:  13  01:25:20  -4.5   -2.9     -5.08790     3      4      
iter:  14  01:25:23  -4.5   -2.8     -5.08742     2      4      
iter:  15  01:25:25  -4.9   -2.9     -5.08788     2      4      
iter:  16  01:25:27  -5.1   -2.9     -5.08785     2      3      
iter:  17  01:25:30  -4.7   -3.0     -5.08813     3      5      
iter:  18  01:25:32  -5.3   -3.1     -5.08798     2      3      
iter:  19  01:25:34  -4.8   -3.1     -5.08786     2      4      
iter:  20  01:25:37  -5.6   -3.6     -5.08830     2      3      
iter:  21  01:25:39  -5.7   -3.8     -5.08800     2      3      
iter:  22  01:25:41  -5.9   -4.0     -5.08801     1      2      
iter:  23  01:25:44  -6.0   -4.4     -5.08816     2      1      
iter:  24  01:25:46  -6.1   -4.5     -5.08808     1      1      
iter:  25  01:25:49  -6.1   -4.4     -5.08831     2      2      
iter:  26  01:25:51  -6.4   -4.1     -5.08807     2      1      
iter:  27  01:25:53  -6.5   -4.2     -5.08797     2      2      
iter:  28  01:25:56  -6.6   -4.4     -5.08787     1      2      
iter:  29  01:25:58  -6.8   -4.9     -5.08813     1      1      
iter:  30  01:26:00  -6.9   -4.9     -5.08821     2      2      
iter:  31  01:26:03  -7.0   -4.5     -5.08803     2      2      
iter:  32  01:26:05  -7.3   -5.1     -5.08817     2      1      
iter:  33  01:26:07  -7.4   -5.1     -5.08806     2      2      
iter:  34  01:26:10  -7.6   -4.9     -5.08835     2      1      
iter:  35  01:26:12  -7.8   -5.2     -5.08825     1      1      
iter:  36  01:26:14  -8.0   -5.3     -5.08816     1      1      
iter:  37  01:26:17  -8.1   -5.3     -5.08813     1      1      
iter:  38  01:26:19  -8.1   -5.4     -5.08811     1      1      
iter:  39  01:26:21  -7.4   -5.5     -5.08820     1      1      
iter:  40  01:26:24  -8.8   -5.3     -5.08812     1      1      
iter:  41  01:26:26  -9.2   -5.7     -5.08817     1      1      
------------------------------------
Converged After 41 Iterations.

Energy Contributions Relative to Reference Atom:(reference = -137098.12663)
-------------------------
Kinetic:        -14.13629
Potential:       +9.43382
External:        +0.00000
XC:              -0.57145
Entropy (-ST):   -0.06550
Local:           +0.21850
-------------------------
Free Energy:     -5.12092
Zero Kelvin:     -5.08817

Fermi Level: 10.59124


Total Charge:  -0.000000 electrons
Dipole Moment: [-1.13693115 -1.13693115 -1.13693115]

Memory estimate
---------------
Calculator  241.51 MiB
    Initial overhead  227.38 MiB
    Density  6.20 MiB
        Arrays  0.34 MiB
        Localized functions  5.14 MiB
        Mixer  0.08 MiB
        Interpolator  0.64 MiB
    Hamiltonian  2.11 MiB
        Arrays  0.22 MiB
        Restrictor  0.37 MiB
        XC 3D grid  0.11 MiB
        Poisson  1.03 MiB
        vbar  0.38 MiB
    Wavefunctions  5.83 MiB
        Arrays psit_nG  3.96 MiB
        Eigensolver  0.53 MiB
        Projectors  0.86 MiB
        Overlap op  0.40 MiB
        Kinetic operator  0.09 MiB

Positions:
  0 Pd    0.0000    0.0000    0.0000

                
                
                
                
       Pd       
                
                
                

Unit Cell:
           Periodic     X           Y           Z      Points  Spacing
  --------------------------------------------------------------------
  1. axis:    yes    0.000000    1.940625    1.940625    12     0.2287
  2. axis:    yes    1.940625    0.000000    1.940625    12     0.2287
  3. axis:    yes    1.940625    1.940625    0.000000    12     0.2287

Pd-setup:
  name   : Palladium
  id     : 4f14685b28dc139b452fc807c0398642
  Z      : 46
  valence: 10
  core   : 36
  charge : 0.0
  file   : /usr/share/gpaw-setups/Pd.LDA.gz
  cutoffs: 1.16(comp), 2.33(filt), 2.96(core), lmax=2
  valence states:
            energy   radius
    5s(0)   -3.604   1.217
    5p(0)   -0.356   1.323
    4d(10)  -4.308   1.164
    *s      23.608   1.217
    *p      26.855   1.323
    *d      22.904   1.164

Using partial waves for Pd as LCAO basis

Using the LDA Exchange-Correlation Functional.
Spin-Paired Calculation
Total Charge:      0.000000
Fermi Temperature: 0.100000
Mode: Finite-difference
Eigensolver:       rmm-diis
                   (3 nearest neighbors central finite-difference stencil)
Poisson Solver:    Jacobi 
                   (3 nearest neighbors central finite-difference stencil)
Interpolation:     6th Order
Reference Energy:  -137098.126630

Total number of cores used: 1
Diagonalizer layout: Serial LAPACK
Orthonormalizer layout: Serial LAPACK

Symmetries present: 48
10 k-points in the Irreducible Part of the Brillouin Zone (total: 64)
Linear Mixing Parameter:           0.1
Pulay Mixing with 3 Old Densities
Damping of Long Wave Oscillations: 50

Convergence Criteria:
Total Energy Change per Atom:           0.001 eV / atom
Integral of Absolute Density Change:    0.0001 electrons
Integral of Absolute Eigenstate Change: 1e-09
Number of Bands in Calculation:         15
Bands to Converge:                      Occupied States Only
Number of Valence Electrons:            10
                     log10-error:    Total        Iterations:
           Time      WFS    Density  Energy       Fermi  Poisson
iter:   1  01:26:37  +2.4            -5.74484     4      12     
iter:   2  01:26:39  -1.9            -6.22752     3             
iter:   3  01:26:41  -2.5            -6.28776     2             
iter:   4  01:26:43  -2.1   -1.0     -5.73843     7      7      
iter:   5  01:26:46  -1.1   -1.1     -4.99065     18     8      
iter:   6  01:26:48  -2.0   -1.9     -5.13663     9      7      
iter:   7  01:26:50  -2.5   -1.6     -5.09015     6      7      
iter:   8  01:26:53  -3.3   -3.0     -5.09725     2      3      
iter:   9  01:26:55  -3.7   -3.0     -5.09963     2      3      
iter:  10  01:26:57  -4.1   -2.9     -5.10048     3      4      
iter:  11  01:27:00  -4.4   -2.9     -5.10054     2      3      
iter:  12  01:27:02  -4.4   -2.8     -5.10084     2      4      
iter:  13  01:27:04  -4.6   -2.9     -5.10126     2      4      
iter:  14  01:27:07  -4.7   -2.9     -5.10093     2      4      
iter:  15  01:27:09  -5.0   -3.0     -5.10132     2      4      
iter:  16  01:27:11  -4.9   -2.9     -5.10139     2      3      
iter:  17  01:27:14  -5.3   -2.9     -5.10136     2      3      
iter:  18  01:27:16  -5.3   -3.0     -5.10149     2      5      
iter:  19  01:27:18  -5.5   -3.3     -5.10144     2      3      
iter:  20  01:27:21  -5.5   -3.4     -5.10142     2      4      
iter:  21  01:27:23  -5.8   -3.5     -5.10142     2      2      
iter:  22  01:27:25  -5.8   -3.5     -5.10133     2      3      
iter:  23  01:27:28  -6.1   -3.8     -5.10143     2      2      
iter:  24  01:27:30  -6.1   -4.0     -5.10163     2      2      
iter:  25  01:27:32  -6.3   -4.3     -5.10165     2      2      
iter:  26  01:27:34  -6.4   -4.4     -5.10145     2      2      
iter:  27  01:27:37  -6.5   -4.4     -5.10192     1      1      
iter:  28  01:27:39  -6.6   -4.4     -5.10156     2      2      
iter:  29  01:27:41  -6.7   -4.2     -5.10135     2      2      
iter:  30  01:27:44  -6.9   -4.3     -5.10152     2      1      
iter:  31  01:27:46  -7.0   -4.4     -5.10185     2      1      
[...]
Number of Valence Electrons:            10
                     log10-error:    Total        Iterations:
           Time      WFS    Density  Energy       Fermi  Poisson
iter:   1  01:52:30  +2.4            -5.73359     4      12     
iter:   2  01:52:33  -1.9            -6.22074     3             
iter:   3  01:52:35  -2.5            -6.28182     2             
iter:   4  01:52:37  -2.1   -1.0     -5.73759     7      7      
iter:   5  01:52:40  -1.1   -1.1     -4.99249     18     8      
iter:   6  01:52:42  -2.0   -1.9     -5.13562     9      7      
iter:   7  01:52:44  -2.5   -1.6     -5.09067     6      7      
iter:   8  01:52:47  -3.3   -3.0     -5.09755     2      3      
iter:   9  01:52:49  -3.7   -3.0     -5.09990     2      3      
iter:  10  01:52:51  -4.1   -2.9     -5.10076     3      4      
iter:  11  01:52:54  -4.4   -2.9     -5.10083     2      3      
iter:  12  01:52:56  -4.4   -2.8     -5.10114     2      4      
iter:  13  01:52:58  -4.6   -2.9     -5.10156     2      4      
iter:  14  01:53:01  -4.6   -2.8     -5.10123     2      4      
iter:  15  01:53:03  -5.0   -3.0     -5.10162     2      4      
iter:  16  01:53:05  -4.9   -2.9     -5.10169     2      3      
iter:  17  01:53:08  -5.3   -2.9     -5.10164     2      3      
iter:  18  01:53:10  -5.3   -3.0     -5.10176     2      5      
iter:  19  01:53:12  -5.5   -3.3     -5.10183     2      4      
iter:  20  01:53:15  -5.5   -3.4     -5.10169     2      4      
iter:  21  01:53:17  -5.8   -3.8     -5.10186     2      1      
iter:  22  01:53:19  -5.8   -3.9     -5.10166     2      3      
iter:  23  01:53:22  -6.1   -3.9     -5.10190     2      2      
iter:  24  01:53:24  -6.2   -4.2     -5.10192     2      2      
iter:  25  01:53:26  -6.3   -4.6     -5.10215     2      1      
iter:  26  01:53:29  -6.4   -5.1     -5.10192     2      1      
iter:  27  01:53:31  -6.6   -5.1     -5.10177     2      1      
iter:  28  01:53:33  -6.7   -5.0     -5.10203     2      1      
iter:  29  01:53:36  -6.8   -4.6     -5.10173     2      1      
iter:  30  01:53:38  -6.9   -4.8     -5.10174     2      1      
iter:  31  01:53:40  -7.0   -4.8     -5.10179     2      2      
iter:  32  01:53:43  -7.2   -4.9     -5.10185     2      1      
iter:  33  01:53:45  -7.3   -4.9     -5.10174     2      1      
iter:  34  01:53:47  -7.4   -5.0     -5.10179     1      1      
iter:  35  01:53:50  -7.5   -5.1     -5.10159     2      1      
iter:  36  01:53:52  -7.7   -5.1     -5.10176     2      1      
iter:  37  01:53:54  -7.8   -5.4     -5.10182     1      1      
iter:  38  01:53:57  -8.0   -5.6     -5.10184     1      1      
iter:  39  01:53:59  -8.2   -5.6     -5.10184     1      1      
iter:  40  01:54:01  -8.4   -5.6     -5.10185     1      1      
iter:  41  01:54:04  -8.6   -5.5     -5.10189     1      1      
iter:  42  01:54:06  -8.7   -5.3     -5.10169     1      1      
iter:  43  01:54:08  -8.6   -6.3     -5.10179     1      1      
iter:  44  01:54:11  -9.1   -6.0     -5.10185     1      1      
------------------------------------
Converged After 44 Iterations.

Energy Contributions Relative to Reference Atom:(reference = -137098.12663)
-------------------------
Kinetic:        -17.65592
Potential:      +12.39195
External:        +0.00000
XC:              -0.02321
Entropy (-ST):   -0.06669
Local:           +0.21869
-------------------------
Free Energy:     -5.13519
Zero Kelvin:     -5.10185

Fermi Level: 9.92039


Total Charge:  0.000000 electrons
Dipole Moment: [-1.16571596 -1.16571596 -1.16571596]

Memory estimate
---------------
Calculator  322.95 MiB
    Initial overhead  308.77 MiB
    Density  6.23 MiB
        Arrays  0.34 MiB
        Localized functions  5.17 MiB
        Mixer  0.08 MiB
        Interpolator  0.64 MiB
    Hamiltonian  2.12 MiB
        Arrays  0.22 MiB
        Restrictor  0.37 MiB
        XC 3D grid  0.11 MiB
        Poisson  1.03 MiB
        vbar  0.38 MiB
    Wavefunctions  5.83 MiB
        Arrays psit_nG  3.96 MiB
        Eigensolver  0.53 MiB
        Projectors  0.86 MiB
        Overlap op  0.40 MiB
        Kinetic operator  0.09 MiB

Positions:
  0 Pd    0.0000    0.0000    0.0000

                
                
                
                
       Pd       
                
                
                

Unit Cell:
           Periodic     X           Y           Z      Points  Spacing
  --------------------------------------------------------------------
  1. axis:    yes    0.000000    1.936230    1.936230    12     0.2282
  2. axis:    yes    1.936230    0.000000    1.936230    12     0.2282
  3. axis:    yes    1.936230    1.936230    0.000000    12     0.2282

Pd-setup:
  name   : Palladium
  id     : 4f14685b28dc139b452fc807c0398642
  Z      : 46
  valence: 10
  core   : 36
  charge : 0.0
  file   : /usr/share/gpaw-setups/Pd.LDA.gz
  cutoffs: 1.16(comp), 2.33(filt), 2.96(core), lmax=2
  valence states:
            energy   radius
    5s(0)   -3.604   1.217
    5p(0)   -0.356   1.323
    4d(10)  -4.308   1.164
    *s      23.608   1.217
    *p      26.855   1.323
    *d      22.904   1.164

Using partial waves for Pd as LCAO basis

Using the LDA Exchange-Correlation Functional.
Spin-Paired Calculation
Total Charge:      0.000000
Fermi Temperature: 0.100000
Mode: Finite-difference
Eigensolver:       rmm-diis
                   (3 nearest neighbors central finite-difference stencil)
Poisson Solver:    Jacobi 
                   (3 nearest neighbors central finite-difference stencil)
Interpolation:     6th Order
Reference Energy:  -137098.126630

Total number of cores used: 1
Diagonalizer layout: Serial LAPACK
Orthonormalizer layout: Serial LAPACK

Symmetries present: 48
10 k-points in the Irreducible Part of the Brillouin Zone (total: 64)
Linear Mixing Parameter:           0.1
Pulay Mixing with 3 Old Densities
Damping of Long Wave Oscillations: 50

Convergence Criteria:
Total Energy Change per Atom:           0.001 eV / atom
Integral of Absolute Density Change:    0.0001 electrons
Integral of Absolute Eigenstate Change: 1e-09
Number of Bands in Calculation:         15
Bands to Converge:                      Occupied States Only
Number of Valence Electrons:            10
                     log10-error:    Total        Iterations:
           Time      WFS    Density  Energy       Fermi  Poisson
iter:   1  01:54:21  +2.4            -5.73339     4      12     
iter:   2  01:54:23  -1.9            -6.22061     3             
iter:   3  01:54:26  -2.5            -6.28172     2             
iter:   4  01:54:28  -2.1   -1.0     -5.73757     7      7      
iter:   5  01:54:30  -1.1   -1.1     -4.99252     18     8      
iter:   6  01:54:33  -2.0   -1.9     -5.13559     9      7      
iter:   7  01:54:35  -2.5   -1.6     -5.09068     6      7      
iter:   8  01:54:38  -3.3   -3.0     -5.09755     2      3      
iter:   9  01:54:40  -3.7   -3.0     -5.09990     2      3      
iter:  10  01:54:42  -4.1   -2.9     -5.10076     3      4      
iter:  11  01:54:45  -4.4   -2.9     -5.10083     2      3      
iter:  12  01:54:47  -4.4   -2.8     -5.10114     2      4      
iter:  13  01:54:49  -4.6   -2.9     -5.10156     2      4      
iter:  14  01:54:52  -4.6   -2.8     -5.10122     2      4      
iter:  15  01:54:54  -5.0   -3.0     -5.10162     2      4      
iter:  16  01:54:56  -4.9   -2.9     -5.10168     2      3      
iter:  17  01:54:59  -5.3   -2.9     -5.10163     2      3      
iter:  18  01:55:01  -5.3   -3.0     -5.10176     2      5      
iter:  19  01:55:03  -5.5   -3.3     -5.10183     2      4      
iter:  20  01:55:06  -5.5   -3.4     -5.10169     2      4      
iter:  21  01:55:08  -5.8   -3.9     -5.10188     2      1      
iter:  22  01:55:10  -5.8   -3.9     -5.10168     2      3      
iter:  23  01:55:13  -6.1   -4.0     -5.10188     2      2      
iter:  24  01:55:15  -6.2   -4.3     -5.10191     2      2      
iter:  25  01:55:17  -6.3   -4.7     -5.10213     2      1      
iter:  26  01:55:20  -6.4   -5.1     -5.10192     2      1      
iter:  27  01:55:22  -6.6   -5.0     -5.10176     2      1      
iter:  28  01:55:24  -6.7   -4.9     -5.10205     2      1      
iter:  29  01:55:27  -6.8   -4.6     -5.10174     2      1      
iter:  30  01:55:29  -6.9   -4.7     -5.10164     2      1      
iter:  31  01:55:31  -7.0   -4.7     -5.10164     1      1      
iter:  32  01:55:34  -7.2   -4.8     -5.10181     2      1      
iter:  33  01:55:36  -7.3   -4.8     -5.10174     2      1      
iter:  34  01:55:38  -7.4   -4.9     -5.10181     1      1      
iter:  35  01:55:41  -7.5   -5.0     -5.10173     2      1      
iter:  36  01:55:43  -7.7   -5.1     -5.10156     2      1      
iter:  37  01:55:45  -7.8   -5.3     -5.10182     2      1      
iter:  38  01:55:48  -8.0   -5.3     -5.10174     2      1      
iter:  39  01:55:50  -8.2   -5.5     -5.10182     1      1      
iter:  40  01:55:52  -8.3   -5.5     -5.10183     2      1      
iter:  41  01:55:55  -8.6   -5.0     -5.10183     1      1      
iter:  42  01:55:57  -8.7   -4.9     -5.10189     2      1      
iter:  43  01:55:59  -8.8   -5.6     -5.10183     1      1      
iter:  44  01:56:02  -9.0   -5.6     -5.10187     1      1      
iter:  45  01:56:04  -9.2   -5.6     -5.10183     1      1      
------------------------------------
Converged After 45 Iterations.

Energy Contributions Relative to Reference Atom:(reference = -137098.12663)
-------------------------
Kinetic:        -17.64184
Potential:      +12.37965
External:        +0.00000
XC:              -0.02484
Entropy (-ST):   -0.06668
Local:           +0.21855
-------------------------
Free Energy:     -5.13517
Zero Kelvin:     -5.10183

Fermi Level: 9.92237


Total Charge:  0.000000 electrons
Dipole Moment: [-1.16563094 -1.16563094 -1.16563094]

Memory estimate
---------------
Calculator  328.20 MiB
    Initial overhead  314.02 MiB
    Density  6.23 MiB
        Arrays  0.34 MiB
        Localized functions  5.17 MiB
        Mixer  0.08 MiB
        Interpolator  0.64 MiB
    Hamiltonian  2.12 MiB
        Arrays  0.22 MiB
        Restrictor  0.37 MiB
        XC 3D grid  0.11 MiB
        Poisson  1.03 MiB
        vbar  0.38 MiB
    Wavefunctions  5.83 MiB
        Arrays psit_nG  3.96 MiB
        Eigensolver  0.53 MiB
        Projectors  0.86 MiB
        Overlap op  0.40 MiB
        Kinetic operator  0.09 MiB

Positions:
  0 Pd    0.0000    0.0000    0.0000

                
                
                
                
       Pd       
                
                
                

Unit Cell:
           Periodic     X           Y           Z      Points  Spacing
  --------------------------------------------------------------------
  1. axis:    yes    0.000000    1.936340    1.936340    12     0.2282
  2. axis:    yes    1.936340    0.000000    1.936340    12     0.2282
  3. axis:    yes    1.936340    1.936340    0.000000    12     0.2282

Pd-setup:
  name   : Palladium
  id     : 4f14685b28dc139b452fc807c0398642
  Z      : 46
  valence: 10
  core   : 36
  charge : 0.0
  file   : /usr/share/gpaw-setups/Pd.LDA.gz
  cutoffs: 1.16(comp), 2.33(filt), 2.96(core), lmax=2
  valence states:
            energy   radius
    5s(0)   -3.604   1.217
    5p(0)   -0.356   1.323
    4d(10)  -4.308   1.164
    *s      23.608   1.217
    *p      26.855   1.323
    *d      22.904   1.164

Using partial waves for Pd as LCAO basis

Using the LDA Exchange-Correlation Functional.
Spin-Paired Calculation
Total Charge:      0.000000
Fermi Temperature: 0.100000
Mode: Finite-difference
Eigensolver:       rmm-diis
                   (3 nearest neighbors central finite-difference stencil)
Poisson Solver:    Jacobi 
                   (3 nearest neighbors central finite-difference stencil)
Interpolation:     6th Order
Reference Energy:  -137098.126630

Total number of cores used: 1
Diagonalizer layout: Serial LAPACK
Orthonormalizer layout: Serial LAPACK

Symmetries present: 48
10 k-points in the Irreducible Part of the Brillouin Zone (total: 64)
Linear Mixing Parameter:           0.1
Pulay Mixing with 3 Old Densities
Damping of Long Wave Oscillations: 50

Convergence Criteria:
Total Energy Change per Atom:           0.001 eV / atom
Integral of Absolute Density Change:    0.0001 electrons
Integral of Absolute Eigenstate Change: 1e-09
Number of Bands in Calculation:         15
Bands to Converge:                      Occupied States Only
Number of Valence Electrons:            10
                     log10-error:    Total        Iterations:
           Time      WFS    Density  Energy       Fermi  Poisson
iter:   1  01:56:15  +2.4            -5.73368     4      12     
iter:   2  01:56:17  -1.9            -6.22080     3             
iter:   3  01:56:19  -2.5            -6.28188     2             
iter:   4  01:56:21  -2.1   -1.0     -5.73760     7      7      
iter:   5  01:56:24  -1.1   -1.1     -4.99248     18     8      
iter:   6  01:56:26  -2.0   -1.9     -5.13563     9      7      
iter:   7  01:56:29  -2.5   -1.6     -5.09067     6      7      
iter:   8  01:56:31  -3.3   -3.0     -5.09755     2      3      
iter:   9  01:56:33  -3.7   -3.0     -5.09990     2      3      
iter:  10  01:56:36  -4.1   -2.9     -5.10077     3      4      
iter:  11  01:56:38  -4.4   -2.9     -5.10084     2      3      
iter:  12  01:56:40  -4.4   -2.8     -5.10115     2      4      
iter:  13  01:56:43  -4.6   -2.9     -5.10156     2      4      
iter:  14  01:56:45  -4.6   -2.8     -5.10123     2      4      
iter:  15  01:56:47  -5.0   -3.0     -5.10162     2      4      
iter:  16  01:56:50  -4.9   -2.9     -5.10169     2      3      
iter:  17  01:56:52  -5.3   -2.9     -5.10164     2      3      
iter:  18  01:56:54  -5.3   -3.0     -5.10176     2      5      
iter:  19  01:56:57  -5.5   -3.3     -5.10183     2      4      
iter:  20  01:56:59  -5.5   -3.4     -5.10170     2      4      
iter:  21  01:57:01  -5.8   -3.7     -5.10183     2      1      
iter:  22  01:57:04  -5.8   -3.8     -5.10165     2      3      
iter:  23  01:57:06  -6.1   -3.9     -5.10192     2      2      
iter:  24  01:57:08  -6.2   -4.2     -5.10193     2      2      
iter:  25  01:57:11  -6.3   -4.5     -5.10214     2      1      
iter:  26  01:57:13  -6.4   -5.0     -5.10190     2      1      
iter:  27  01:57:15  -6.6   -5.2     -5.10176     2      1      
iter:  28  01:57:18  -6.7   -5.2     -5.10185     2      1      
iter:  29  01:57:20  -6.8   -5.0     -5.10188     1      1      
iter:  30  01:57:22  -6.9   -4.9     -5.10173     1      1      
iter:  31  01:57:25  -7.0   -5.0     -5.10175     1      1      
iter:  32  01:57:27  -7.1   -5.0     -5.10177     2      2      
iter:  33  01:57:29  -7.3   -5.0     -5.10195     1      1      
iter:  34  01:57:32  -7.4   -5.1     -5.10189     1      1      
iter:  35  01:57:34  -7.5   -5.0     -5.10183     2      1      
iter:  36  01:57:36  -7.7   -5.1     -5.10182     1      1      
iter:  37  01:57:39  -7.8   -5.1     -5.10205     1      1      
iter:  38  01:57:41  -8.0   -4.8     -5.10209     2      1      
iter:  39  01:57:43  -8.2   -4.7     -5.10175     1      2      
iter:  40  01:57:46  -8.4   -5.2     -5.10176     1      1      
iter:  41  01:57:48  -8.5   -5.2     -5.10177     2      1      
iter:  42  01:57:50  -8.7   -5.5     -5.10184     1      1      
iter:  43  01:57:53  -8.8   -5.7     -5.10182     1      1      
iter:  44  01:57:55  -9.0   -5.7     -5.10181     1      1      
------------------------------------
Converged After 44 Iterations.

Energy Contributions Relative to Reference Atom:(reference = -137098.12663)
-------------------------
Kinetic:        -17.66275
Potential:      +12.39787
External:        +0.00000
XC:              -0.02227
Entropy (-ST):   -0.06669
Local:           +0.21868
-------------------------
Free Energy:     -5.13515
Zero Kelvin:     -5.10181

Fermi Level: 9.91934


Total Charge:  -0.000000 electrons
Dipole Moment: [-1.16576162 -1.16576162 -1.16576162]
<?xml version="1.0" ?>
<test id="FCCLattice">
	<config>
		<potential>
			GPAW
		</potential>
		<element>
			Pd
		</element>
	</config>
	<results>
		<FCCLatticeConstant>
			3.87260742188
		</FCCLatticeConstant>
		<FCCEnergyPerAtom>
			-5.10184828841
		</FCCEnergyPerAtom>
	</results>
</test>

Memory usage: 321.52 MB

============================================================
Timing:                               incl.     excl.
============================================================
Initialization:                     228.696    40.599   1.3% ||
 Hamiltonian:                         5.735     0.004   0.0% |
  Atomic:                             2.256     0.167   0.0% |
   XC Correction:                     2.089     2.089   0.1% |
  Communicate energies:               0.000     0.000   0.0% |
  Hartree integrate/restrict:         0.030     0.030   0.0% |
  Initialize Hamiltonian:             0.086     0.086   0.0% |
  Poisson:                            3.032     3.032   0.1% |
  XC 3D grid:                         0.314     0.314   0.0% |
  vbar:                               0.014     0.014   0.0% |
 LCAO initialization:               182.363     5.958   0.2% |
  LCAO eigensolver:                 133.641     0.039   0.0% |
   Atomic Hamiltonian:                0.038     0.038   0.0% |
   Calculate projections:             0.010     0.010   0.0% |
   Distribute overlap matrix:         0.005     0.005   0.0% |
   Orbital Layouts:                   0.078     0.078   0.0% |
   Potential matrix:                133.472   133.472   4.4% |-|
  LCAO to grid:                      26.351    26.351   0.9% |
  Set positions (LCAO WFS):          16.413     0.005   0.0% |
   Basic WFS set positions:           0.053     0.053   0.0% |
   Basis functions set positions:     0.001     0.001   0.0% |
   TCI: Calculate S, T, P:           16.353    16.353   0.5% |
SCF-cycle:                         2824.218     6.225   0.2% |
 Density:                            40.741     0.054   0.0% |
  Atomic density matrices:            7.954     7.954   0.3% |
  Mix:                               10.810    10.810   0.4% |
  Multipole moments:                  0.082     0.082   0.0% |
  Pseudo density:                    21.840     9.217   0.3% |
   Symmetrize density:               12.623    12.623   0.4% |
 Hamiltonian:                       138.358     0.142   0.0% |
  Atomic:                            94.973     7.128   0.2% |
   XC Correction:                    87.845    87.845   2.9% ||
  Communicate energies:               0.016     0.016   0.0% |
  Hartree integrate/restrict:         1.261     1.261   0.0% |
  Poisson:                           28.184    28.184   0.9% |
  XC 3D grid:                        13.159    13.159   0.4% |
  vbar:                               0.623     0.623   0.0% |
 Orthonormalize:                    544.557   499.893  16.4% |------|
  Band Layouts:                       1.594     0.248   0.0% |
   Distribute results:                0.106     0.106   0.0% |
   Inverse Cholesky:                  1.240     1.240   0.0% |
  calc_matrix:                       23.880    23.880   0.8% |
  rotate_psi:                        19.190    19.190   0.6% |
 RMM-DIIS:                         1948.497  1648.860  54.0% |---------------------|
  precondition:                     299.637   299.637   9.8% |---|
 Subspace diag:                     145.840     1.524   0.0% |
  Band Layouts:                       4.403     0.407   0.0% |
   Diagonalize:                       3.760     3.760   0.1% |
   Distribute results:                0.236     0.236   0.0% |
  calc_matrix:                      104.244   104.244   3.4% ||
  rotate_psi:                        35.668    35.668   1.2% |
Other:                                0.150     0.150   0.0% |
============================================================
Total:                                       3053.064 100.0%
============================================================
date: Thu Feb  3 01:57:55 2011
