
  ___ ___ ___ _ _ _  
 |   |   |_  | | | | 
 | | | | | . | | | | 
 |__ |  _|___|_____|  0.7.2.6974
 |___|_|             

User: alemi@Cerebellum
Date: Wed Feb  2 23:58:05 2011
Arch: i686
Pid:  10271
Dir:  /usr/lib/python2.6/dist-packages/gpaw
ase:   /home/alemi/ase/ase  version:  3.5.0.1614
numpy: /usr/lib/python2.6/dist-packages/numpy
units: Angstrom and eV

Memory estimate
---------------
Calculator  130.09 MiB
    Initial overhead  123.72 MiB
    Density  3.51 MiB
        Arrays  0.10 MiB
        Localized functions  3.10 MiB
        Mixer  0.02 MiB
        Interpolator  0.28 MiB
    Hamiltonian  0.84 MiB
        Arrays  0.07 MiB
        Restrictor  0.16 MiB
        XC 3D grid  0.03 MiB
        Poisson  0.35 MiB
        vbar  0.24 MiB
    Wavefunctions  2.03 MiB
        Arrays psit_nG  1.17 MiB
        Eigensolver  0.16 MiB
        Projectors  0.54 MiB
        Overlap op  0.12 MiB
        Kinetic operator  0.04 MiB

Positions:
  0 Ag    0.0000    0.0000    0.0000

                
                
                
                
       Ag       
                
                
                

Unit Cell:
           Periodic     X           Y           Z      Points  Spacing
  --------------------------------------------------------------------
  1. axis:    yes    0.000000    1.500000    1.500000     8     0.2652
  2. axis:    yes    1.500000    0.000000    1.500000     8     0.2652
  3. axis:    yes    1.500000    1.500000    0.000000     8     0.2652

Ag-setup:
  name   : Silver
  id     : aac732a7f42225a52edcbbb6e277d3cd
  Z      : 47
  valence: 11
  core   : 36
  charge : 0.0
  file   : /usr/share/gpaw-setups/Ag.LDA.gz
  cutoffs: 1.30(comp), 2.31(filt), 2.78(core), lmax=2
  valence states:
            energy   radius
    5s(1)   -4.708   1.296
    5p(0)   -0.844   1.296
    4d(10)  -7.664   1.296
    *s      22.503   1.296
    *p      26.368   1.296
    *d      19.547   1.296

Using partial waves for Ag as LCAO basis

Using the LDA Exchange-Correlation Functional.
Spin-Paired Calculation
Total Charge:      0.000000
Fermi Temperature: 0.100000
Mode: Finite-difference
Eigensolver:       rmm-diis
                   (3 nearest neighbors central finite-difference stencil)
Poisson Solver:    Jacobi 
                   (3 nearest neighbors central finite-difference stencil)
Interpolation:     6th Order
Reference Energy:  -144464.583386

Total number of cores used: 1
Diagonalizer layout: Serial LAPACK
Orthonormalizer layout: Serial LAPACK

Symmetries present: 48
10 k-points in the Irreducible Part of the Brillouin Zone (total: 64)
Linear Mixing Parameter:           0.1
Pulay Mixing with 3 Old Densities
Damping of Long Wave Oscillations: 50

Convergence Criteria:
Total Energy Change per Atom:           0.001 eV / atom
Integral of Absolute Density Change:    0.0001 electrons
Integral of Absolute Eigenstate Change: 1e-09
Number of Bands in Calculation:         15
Bands to Converge:                      Occupied States Only
Number of Valence Electrons:            11
                     log10-error:    Total        Iterations:
           Time      WFS    Density  Energy       Fermi  Poisson
iter:   1  23:58:17  +2.2             12.51862    29     12     
iter:   2  23:58:19  -1.5             11.64764    5             
iter:   3  23:58:21  -2.2             11.53246    3             
iter:   4  23:58:22  -2.6   -1.7      11.78571    4      6      
iter:   5  23:58:24  -2.2   -1.7      12.76349    12     7      
iter:   6  23:58:26  -2.6   -2.1      12.75343    3      5      
iter:   7  23:58:28  -3.1   -2.1      12.79024    4      7      
iter:   8  23:58:29  -2.6   -1.7      12.77819    5      8      
iter:   9  23:58:31  -3.1   -2.2      12.76221    2      7      
iter:  10  23:58:33  -3.5   -3.0      12.75898    3      4      
iter:  11  23:58:34  -3.7   -3.0      12.75648    3      4      
iter:  12  23:58:36  -4.0   -2.8      12.75640    3      5      
iter:  13  23:58:38  -4.3   -2.6      12.75614    3      5      
iter:  14  23:58:39  -4.5   -2.9      12.75605    3      5      
iter:  15  23:58:41  -4.6   -3.3      12.75592    3      4      
iter:  16  23:58:43  -5.1   -3.8      12.75574    3      3      
iter:  17  23:58:45  -5.3   -4.2      12.75589    2      2      
iter:  18  23:58:46  -5.6   -4.3      12.75596    2      2      
iter:  19  23:58:48  -5.8   -4.4      12.75585    2      1      
iter:  20  23:58:50  -6.1   -4.4      12.75571    2      3      
iter:  21  23:58:51  -6.3   -3.9      12.75583    2      2      
iter:  22  23:58:53  -6.4   -3.9      12.75576    2      2      
iter:  23  23:58:55  -6.2   -4.1      12.75585    2      3      
iter:  24  23:58:56  -6.7   -4.4      12.75574    2      2      
iter:  25  23:58:58  -6.9   -4.4      12.75578    2      2      
iter:  26  23:59:00  -6.5   -4.2      12.75575    3      2      
iter:  27  23:59:02  -7.1   -4.5      12.75588    2      2      
iter:  28  23:59:03  -6.8   -4.3      12.75563    2      2      
iter:  29  23:59:05  -7.2   -4.4      12.75595    2      1      
iter:  30  23:59:07  -6.9   -4.5      12.75587    2      2      
iter:  31  23:59:08  -7.4   -4.5      12.75570    2      2      
iter:  32  23:59:10  -6.9   -4.5      12.75575    2      2      
iter:  33  23:59:12  -7.5   -4.6      12.75594    2      1      
iter:  34  23:59:13  -7.8   -4.8      12.75582    2      1      
iter:  35  23:59:15  -7.9   -4.9      12.75596    2      1      
iter:  36  23:59:17  -7.4   -4.9      12.75588    2      2      
iter:  37  23:59:18  -8.3   -5.2      12.75586    1      1      
iter:  38  23:59:20  -8.4   -5.3      12.75595    2      1      
iter:  39  23:59:22  -8.9   -5.5      12.75584    2      1      
iter:  40  23:59:24  -9.1   -5.6      12.75580    2      1      
------------------------------------
Converged After 40 Iterations.

Energy Contributions Relative to Reference Atom:(reference = -144464.58339)
-------------------------
Kinetic:       +260.21773
Potential:     -219.36966
External:        +0.00000
XC:             -28.73676
Entropy (-ST):   -0.02389
Local:           +0.65643
-------------------------
Free Energy:    +12.74385
Zero Kelvin:    +12.75580

Fermi Level: 30.86138


Total Charge:  0.000000 electrons
Dipole Moment: [-0.72188203 -0.72188203 -0.72188203]

Memory estimate
---------------
Calculator  158.42 MiB
    Initial overhead  152.58 MiB
    Density  3.08 MiB
        Arrays  0.10 MiB
        Localized functions  2.67 MiB
        Mixer  0.02 MiB
        Interpolator  0.28 MiB
    Hamiltonian  0.81 MiB
        Arrays  0.07 MiB
        Restrictor  0.16 MiB
        XC 3D grid  0.03 MiB
        Poisson  0.35 MiB
        vbar  0.21 MiB
    Wavefunctions  1.95 MiB
        Arrays psit_nG  1.17 MiB
        Eigensolver  0.16 MiB
        Projectors  0.46 MiB
        Overlap op  0.12 MiB
        Kinetic operator  0.04 MiB

Positions:
  0 Ag    0.0000    0.0000    0.0000

                
                
                
                
       Ag       
                
                
                

Unit Cell:
           Periodic     X           Y           Z      Points  Spacing
  --------------------------------------------------------------------
  1. axis:    yes    0.000000    1.575000    1.575000     8     0.2784
  2. axis:    yes    1.575000    0.000000    1.575000     8     0.2784
  3. axis:    yes    1.575000    1.575000    0.000000     8     0.2784

Ag-setup:
  name   : Silver
  id     : aac732a7f42225a52edcbbb6e277d3cd
  Z      : 47
  valence: 11
  core   : 36
  charge : 0.0
  file   : /usr/share/gpaw-setups/Ag.LDA.gz
  cutoffs: 1.30(comp), 2.31(filt), 2.78(core), lmax=2
  valence states:
            energy   radius
    5s(1)   -4.708   1.296
    5p(0)   -0.844   1.296
    4d(10)  -7.664   1.296
    *s      22.503   1.296
    *p      26.368   1.296
    *d      19.547   1.296

Using partial waves for Ag as LCAO basis

Using the LDA Exchange-Correlation Functional.
Spin-Paired Calculation
Total Charge:      0.000000
Fermi Temperature: 0.100000
Mode: Finite-difference
Eigensolver:       rmm-diis
                   (3 nearest neighbors central finite-difference stencil)
Poisson Solver:    Jacobi 
                   (3 nearest neighbors central finite-difference stencil)
Interpolation:     6th Order
Reference Energy:  -144464.583386

Total number of cores used: 1
Diagonalizer layout: Serial LAPACK
Orthonormalizer layout: Serial LAPACK

Symmetries present: 48
10 k-points in the Irreducible Part of the Brillouin Zone (total: 64)
Linear Mixing Parameter:           0.1
Pulay Mixing with 3 Old Densities
Damping of Long Wave Oscillations: 50

Convergence Criteria:
Total Energy Change per Atom:           0.001 eV / atom
Integral of Absolute Density Change:    0.0001 electrons
Integral of Absolute Eigenstate Change: 1e-09
Number of Bands in Calculation:         15
Bands to Converge:                      Occupied States Only
Number of Valence Electrons:            11
                     log10-error:    Total        Iterations:
           Time      WFS    Density  Energy       Fermi  Poisson
iter:   1  23:59:33  +2.0             5.89691     25     12     
iter:   2  23:59:35  -1.7             5.21558     4             
iter:   3  23:59:36  -2.3             5.11654     3             
iter:   4  23:59:37  -2.7   -1.5      5.25624     3      6      
iter:   5  23:59:39  -2.4   -1.6      5.79938     5      8      
iter:   6  23:59:40  -3.0   -2.3      5.79749     4      5      
iter:   7  23:59:42  -2.2   -2.2      5.13730     10     7      
iter:   8  23:59:43  -2.1   -1.7      5.83975     13     7      
iter:   9  23:59:45  -2.8   -2.8      5.81387     4      5      
iter:  10  23:59:46  -3.3   -3.0      5.80826     3      4      
iter:  11  23:59:48  -3.6   -2.8      5.80776     3      3      
iter:  12  23:59:49  -3.9   -2.7      5.80467     3      5      
iter:  13  23:59:51  -3.9   -2.8      5.79892     3      6      
iter:  14  23:59:52  -4.3   -3.2      5.80328     3      5      
iter:  15  23:59:53  -4.2   -2.9      5.79730     4      4      
iter:  16  23:59:55  -4.6   -3.1      5.79860     3      4      
iter:  17  23:59:56  -4.8   -3.2      5.79835     2      4      
iter:  18  23:59:58  -5.2   -3.2      5.79928     3      3      
iter:  19  23:59:59  -4.9   -3.2      5.80362     3      5      
iter:  20  00:00:01  -5.2   -3.2      5.80561     3      3      
iter:  21  00:00:02  -4.6   -3.3      5.80791     3      4      
iter:  22  00:00:04  -5.3   -3.4      5.80754     2      3      
iter:  23  00:00:05  -5.1   -3.5      5.80793     3      3      
iter:  24  00:00:07  -5.8   -3.6      5.80779     3      3      
iter:  25  00:00:08  -6.1   -3.7      5.80789     2      2      
iter:  26  00:00:09  -5.8   -3.7      5.80803     3      3      
iter:  27  00:00:11  -6.0   -3.9      5.80822     2      2      
iter:  28  00:00:12  -6.3   -4.0      5.80807     2      3      
iter:  29  00:00:14  -6.6   -4.5      5.80808     2      2      
iter:  30  00:00:15  -6.7   -4.5      5.80803     2      2      
iter:  31  00:00:17  -7.0   -4.5      5.80785     2      2      
iter:  32  00:00:18  -7.2   -4.3      5.80809     2      2      
iter:  33  00:00:19  -7.1   -4.4      5.80792     2      2      
iter:  34  00:00:21  -7.4   -4.3      5.80786     2      2      
iter:  35  00:00:22  -7.6   -4.2      5.80811     2      2      
iter:  36  00:00:24  -7.9   -4.3      5.80787     1      2      
iter:  37  00:00:25  -7.7   -4.3      5.80802     2      1      
iter:  38  00:00:27  -8.3   -4.3      5.80805     2      1      
iter:  39  00:00:28  -8.0   -4.3      5.80806     2      2      
iter:  40  00:00:30  -7.8   -4.4      5.80789     2      1      
iter:  41  00:00:31  -8.6   -4.4      5.80783     2      1      
iter:  42  00:00:32  -8.7   -4.5      5.80782     2      2      
iter:  43  00:00:34  -9.3   -4.9      5.80793     1      1      
------------------------------------
Converged After 43 Iterations.

Energy Contributions Relative to Reference Atom:(reference = -144464.58339)
-------------------------
Kinetic:       +166.74612
Potential:     -140.25863
External:        +0.00000
XC:             -21.08327
Entropy (-ST):   -0.02428
Local:           +0.41585
-------------------------
Free Energy:     +5.79579
Zero Kelvin:     +5.80793

Fermi Level: 25.02719


Total Charge:  0.000000 electrons
Dipole Moment: [-0.81281678 -0.81281678 -0.81281678]

Memory estimate
---------------
Calculator  167.47 MiB
    Initial overhead  162.06 MiB
    Density  2.74 MiB
        Arrays  0.10 MiB
        Localized functions  2.33 MiB
        Mixer  0.02 MiB
        Interpolator  0.28 MiB
    Hamiltonian  0.78 MiB
        Arrays  0.07 MiB
        Restrictor  0.16 MiB
        XC 3D grid  0.03 MiB
        Poisson  0.35 MiB
        vbar  0.18 MiB
    Wavefunctions  1.89 MiB
        Arrays psit_nG  1.17 MiB
        Eigensolver  0.16 MiB
        Projectors  0.40 MiB
        Overlap op  0.12 MiB
        Kinetic operator  0.04 MiB

Positions:
  0 Ag    0.0000    0.0000    0.0000

                
                
                
                
       Ag       
                
                
                

Unit Cell:
           Periodic     X           Y           Z      Points  Spacing
  --------------------------------------------------------------------
  1. axis:    yes    0.000000    1.650000    1.650000     8     0.2917
  2. axis:    yes    1.650000    0.000000    1.650000     8     0.2917
  3. axis:    yes    1.650000    1.650000    0.000000     8     0.2917

Ag-setup:
  name   : Silver
  id     : aac732a7f42225a52edcbbb6e277d3cd
  Z      : 47
  valence: 11
  core   : 36
  charge : 0.0
  file   : /usr/share/gpaw-setups/Ag.LDA.gz
  cutoffs: 1.30(comp), 2.31(filt), 2.78(core), lmax=2
  valence states:
            energy   radius
    5s(1)   -4.708   1.296
    5p(0)   -0.844   1.296
    4d(10)  -7.664   1.296
    *s      22.503   1.296
    *p      26.368   1.296
    *d      19.547   1.296

Using partial waves for Ag as LCAO basis

Using the LDA Exchange-Correlation Functional.
Spin-Paired Calculation
Total Charge:      0.000000
Fermi Temperature: 0.100000
Mode: Finite-difference
Eigensolver:       rmm-diis
                   (3 nearest neighbors central finite-difference stencil)
Poisson Solver:    Jacobi 
                   (3 nearest neighbors central finite-difference stencil)
Interpolation:     6th Order
Reference Energy:  -144464.583386

Total number of cores used: 1
Diagonalizer layout: Serial LAPACK
Orthonormalizer layout: Serial LAPACK

Symmetries present: 48
10 k-points in the Irreducible Part of the Brillouin Zone (total: 64)
Linear Mixing Parameter:           0.1
Pulay Mixing with 3 Old Densities
Damping of Long Wave Oscillations: 50

Convergence Criteria:
Total Energy Change per Atom:           0.001 eV / atom
Integral of Absolute Density Change:    0.0001 electrons
Integral of Absolute Eigenstate Change: 1e-09
Number of Bands in Calculation:         15
Bands to Converge:                      Occupied States Only
Number of Valence Electrons:            11
                     log10-error:    Total        Iterations:
           Time      WFS    Density  Energy       Fermi  Poisson
iter:   1  00:00:42  +1.9             1.61866     22     12     
iter:   2  00:00:43  -1.8             1.06731     4             
iter:   3  00:00:44  -2.4             0.97918     3             
iter:   4  00:00:46  -2.8   -1.4      1.08958     3      6      
iter:   5  00:00:47  -2.0   -1.5      1.47018     5      8      
iter:   6  00:00:48  -3.1   -2.3      1.44648     4      6      
iter:   7  00:00:49  -2.3   -2.2      1.28662     9      7      
iter:   8  00:00:51  -2.9   -2.1      1.46920     6      6      
iter:   9  00:00:52  -3.7   -2.9      1.46015     3      4      
iter:  10  00:00:53  -3.8   -2.9      1.45176     3      4      
iter:  11  00:00:54  -4.2   -2.9      1.45007     2      4      
iter:  12  00:00:56  -4.5   -2.9      1.45744     3      5      
iter:  13  00:00:57  -4.3   -3.0      1.46620     3      5      
iter:  14  00:00:58  -5.0   -3.2      1.46675     3      5      
iter:  15  00:00:59  -4.8   -3.4      1.46797     3      4      
iter:  16  00:01:01  -4.8   -3.6      1.46824     3      4      
iter:  17  00:01:02  -5.4   -3.9      1.46804     2      2      
iter:  18  00:01:03  -5.7   -3.8      1.46803     2      1      
iter:  19  00:01:04  -5.2   -3.8      1.46822     3      3      
iter:  20  00:01:06  -5.0   -3.3      1.46798     3      4      
iter:  21  00:01:07  -6.0   -3.9      1.46808     2      2      
iter:  22  00:01:08  -6.2   -4.0      1.46797     2      3      
iter:  23  00:01:09  -6.6   -4.0      1.46784     2      2      
iter:  24  00:01:11  -6.6   -4.1      1.46818     2      2      
iter:  25  00:01:12  -6.0   -4.0      1.46790     3      3      
iter:  26  00:01:13  -7.1   -4.1      1.46795     2      2      
iter:  27  00:01:14  -7.4   -4.1      1.46800     2      1      
iter:  28  00:01:16  -6.4   -4.2      1.46802     2      3      
iter:  29  00:01:17  -7.3   -4.5      1.46808     2      2      
iter:  30  00:01:18  -7.6   -4.7      1.46808     2      1      
iter:  31  00:01:19  -7.8   -4.8      1.46809     2      1      
iter:  32  00:01:20  -8.2   -5.0      1.46810     2      1      
iter:  33  00:01:22  -8.3   -4.9      1.46807     2      1      
iter:  34  00:01:23  -7.8   -4.9      1.46820     2      1      
iter:  35  00:01:24  -7.8   -4.7      1.46793     2      1      
iter:  36  00:01:25  -8.5   -4.9      1.46820     2      1      
iter:  37  00:01:27  -9.0   -5.0      1.46808     2      1      
------------------------------------
Converged After 37 Iterations.

Energy Contributions Relative to Reference Atom:(reference = -144464.58339)
-------------------------
Kinetic:       +102.31087
Potential:      -85.77076
External:        +0.00000
XC:             -15.34566
Entropy (-ST):   -0.02742
Local:           +0.28733
-------------------------
Free Energy:     +1.45437
Zero Kelvin:     +1.46808

Fermi Level: 20.35480


Total Charge:  0.000000 electrons
Dipole Moment: [-0.90489831 -0.90489831 -0.90489831]

Memory estimate
---------------
Calculator  174.92 MiB
    Initial overhead  169.88 MiB
    Density  2.45 MiB
        Arrays  0.10 MiB
        Localized functions  2.04 MiB
        Mixer  0.02 MiB
        Interpolator  0.28 MiB
    Hamiltonian  0.76 MiB
        Arrays  0.07 MiB
        Restrictor  0.16 MiB
        XC 3D grid  0.03 MiB
        Poisson  0.35 MiB
        vbar  0.16 MiB
    Wavefunctions  1.84 MiB
        Arrays psit_nG  1.17 MiB
        Eigensolver  0.16 MiB
        Projectors  0.35 MiB
        Overlap op  0.12 MiB
        Kinetic operator  0.04 MiB

Positions:
  0 Ag    0.0000    0.0000    0.0000

                
                
                
                
       Ag       
                
                
                

Unit Cell:
           Periodic     X           Y           Z      Points  Spacing
  --------------------------------------------------------------------
  1. axis:    yes    0.000000    1.725000    1.725000     8     0.3049
  2. axis:    yes    1.725000    0.000000    1.725000     8     0.3049
  3. axis:    yes    1.725000    1.725000    0.000000     8     0.3049

Ag-setup:
  name   : Silver
  id     : aac732a7f42225a52edcbbb6e277d3cd
  Z      : 47
  valence: 11
  core   : 36
  charge : 0.0
  file   : /usr/share/gpaw-setups/Ag.LDA.gz
  cutoffs: 1.30(comp), 2.31(filt), 2.78(core), lmax=2
  valence states:
            energy   radius
    5s(1)   -4.708   1.296
    5p(0)   -0.844   1.296
    4d(10)  -7.664   1.296
    *s      22.503   1.296
    *p      26.368   1.296
    *d      19.547   1.296

Using partial waves for Ag as LCAO basis

Using the LDA Exchange-Correlation Functional.
Spin-Paired Calculation
Total Charge:      0.000000
Fermi Temperature: 0.100000
Mode: Finite-difference
Eigensolver:       rmm-diis
                   (3 nearest neighbors central finite-difference stencil)
Poisson Solver:    Jacobi 
                   (3 nearest neighbors central finite-difference stencil)
Interpolation:     6th Order
Reference Energy:  -144464.583386

Total number of cores used: 1
Diagonalizer layout: Serial LAPACK
Orthonormalizer layout: Serial LAPACK

Symmetries present: 48
10 k-points in the Irreducible Part of the Brillouin Zone (total: 64)
Linear Mixing Parameter:           0.1
Pulay Mixing with 3 Old Densities
Damping of Long Wave Oscillations: 50

Convergence Criteria:
Total Energy Change per Atom:           0.001 eV / atom
Integral of Absolute Density Change:    0.0001 electrons
Integral of Absolute Eigenstate Change: 1e-09
Number of Bands in Calculation:         15
Bands to Converge:                      Occupied States Only
Number of Valence Electrons:            11
                     log10-error:    Total        Iterations:
           Time      WFS    Density  Energy       Fermi  Poisson
iter:   1  00:01:34  +1.8            -1.06041     18     12     
iter:   2  00:01:35  -2.0            -1.52845     4             
iter:   3  00:01:36  -2.5            -1.60740     3             
iter:   4  00:01:37  -2.8   -1.4     -1.49068     3      7      
iter:   5  00:01:38  -1.8   -1.5     -1.16346     6      8      
iter:   6  00:01:39  -3.2   -2.2     -1.19611     3      6      
iter:   7  00:01:40  -3.2   -2.2     -1.18876     4      6      
iter:   8  00:01:41  -3.7   -2.6     -1.18239     3      5      
iter:   9  00:01:42  -4.0   -3.0     -1.18310     2      4      
iter:  10  00:01:44  -4.3   -2.8     -1.18354     3      5      
iter:  11  00:01:45  -4.6   -3.1     -1.18547     2      4      
iter:  12  00:01:46  -4.3   -3.0     -1.18294     3      5      
iter:  13  00:01:47  -5.0   -3.0     -1.18293     2      5      
iter:  14  00:01:48  -4.9   -2.9     -1.18313     3      5      
iter:  15  00:01:49  -5.0   -3.3     -1.18309     2      4      
iter:  16  00:01:50  -5.5   -3.5     -1.18311     2      2      
iter:  17  00:01:52  -5.8   -3.6     -1.18300     2      2      
iter:  18  00:01:53  -5.9   -3.6     -1.18299     2      4      
iter:  19  00:01:54  -6.4   -4.3     -1.18289     2      2      
iter:  20  00:01:55  -6.3   -4.5     -1.18310     2      1      
iter:  21  00:01:56  -7.0   -4.6     -1.18298     2      1      
iter:  22  00:01:57  -7.2   -4.6     -1.18301     2      1      
iter:  23  00:01:58  -7.3   -4.6     -1.18302     2      2      
iter:  24  00:01:59  -7.6   -4.5     -1.18313     2      2      
iter:  25  00:02:01  -7.9   -5.4     -1.18310     1      1      
iter:  26  00:02:02  -7.8   -5.4     -1.18310     1      1      
iter:  27  00:02:03  -8.3   -5.3     -1.18312     2      1      
iter:  28  00:02:04  -8.5   -5.1     -1.18307     2      1      
iter:  29  00:02:05  -8.7   -5.5     -1.18310     2      1      
iter:  30  00:02:06  -8.9   -5.3     -1.18328     1      1      
iter:  31  00:02:07  -9.0   -4.8     -1.18289     2      1      
------------------------------------
Converged After 31 Iterations.

Energy Contributions Relative to Reference Atom:(reference = -144464.58339)
-------------------------
Kinetic:        +58.40512
Potential:      -48.73261
External:        +0.00000
XC:             -11.08241
Entropy (-ST):   -0.03554
Local:           +0.24478
-------------------------
Free Energy:     -1.20066
Zero Kelvin:     -1.18289

Fermi Level: 16.61003


Total Charge:  -0.000000 electrons
Dipole Moment: [-0.99756122 -0.99756122 -0.99756122]

Memory estimate
---------------
Calculator  187.14 MiB
    Initial overhead  172.69 MiB
    Density  6.41 MiB
        Arrays  0.34 MiB
        Localized functions  5.35 MiB
        Mixer  0.08 MiB
        Interpolator  0.64 MiB
    Hamiltonian  2.15 MiB
        Arrays  0.22 MiB
        Restrictor  0.37 MiB
        XC 3D grid  0.11 MiB
        Poisson  1.03 MiB
        vbar  0.41 MiB
    Wavefunctions  5.90 MiB
        Arrays psit_nG  3.96 MiB
        Eigensolver  0.53 MiB
        Projectors  0.93 MiB
        Overlap op  0.40 MiB
        Kinetic operator  0.09 MiB

Positions:
  0 Ag    0.0000    0.0000    0.0000

                
                
                
                
       Ag       
                
                
                

Unit Cell:
           Periodic     X           Y           Z      Points  Spacing
  --------------------------------------------------------------------
  1. axis:    yes    0.000000    1.875000    1.875000    12     0.2210
  2. axis:    yes    1.875000    0.000000    1.875000    12     0.2210
  3. axis:    yes    1.875000    1.875000    0.000000    12     0.2210

Ag-setup:
  name   : Silver
  id     : aac732a7f42225a52edcbbb6e277d3cd
  Z      : 47
  valence: 11
  core   : 36
  charge : 0.0
  file   : /usr/share/gpaw-setups/Ag.LDA.gz
  cutoffs: 1.30(comp), 2.31(filt), 2.78(core), lmax=2
  valence states:
            energy   radius
    5s(1)   -4.708   1.296
    5p(0)   -0.844   1.296
    4d(10)  -7.664   1.296
    *s      22.503   1.296
    *p      26.368   1.296
    *d      19.547   1.296

Using partial waves for Ag as LCAO basis

Using the LDA Exchange-Correlation Functional.
Spin-Paired Calculation
Total Charge:      0.000000
Fermi Temperature: 0.100000
Mode: Finite-difference
Eigensolver:       rmm-diis
                   (3 nearest neighbors central finite-difference stencil)
Poisson Solver:    Jacobi 
                   (3 nearest neighbors central finite-difference stencil)
Interpolation:     6th Order
Reference Energy:  -144464.583386

Total number of cores used: 1
Diagonalizer layout: Serial LAPACK
Orthonormalizer layout: Serial LAPACK

Symmetries present: 48
10 k-points in the Irreducible Part of the Brillouin Zone (total: 64)
Linear Mixing Parameter:           0.1
Pulay Mixing with 3 Old Densities
Damping of Long Wave Oscillations: 50

Convergence Criteria:
Total Energy Change per Atom:           0.001 eV / atom
Integral of Absolute Density Change:    0.0001 electrons
Integral of Absolute Eigenstate Change: 1e-09
Number of Bands in Calculation:         15
Bands to Converge:                      Occupied States Only
Number of Valence Electrons:            11
                     log10-error:    Total        Iterations:
           Time      WFS    Density  Energy       Fermi  Poisson
iter:   1  00:02:19  +2.5            -3.13357     13     11     
iter:   2  00:02:22  -1.7            -3.55521     4             
iter:   3  00:02:24  -2.3            -3.64013     3             
iter:   4  00:02:26  -2.2   -1.4     -3.49364     4      6      
iter:   5  00:02:29  -1.3   -1.5     -3.20662     7      7      
iter:   6  00:02:31  -2.8   -2.1     -3.26425     3      5      
iter:   7  00:02:34  -3.0   -2.2     -3.26005     3      5      
iter:   8  00:02:36  -3.8   -3.0     -3.26202     3      4      
iter:   9  00:02:39  -4.0   -3.0     -3.26258     3      4      
iter:  10  00:02:41  -4.3   -3.0     -3.26309     3      4      
iter:  11  00:02:44  -4.5   -2.8     -3.26342     3      4      
iter:  12  00:02:46  -4.5   -3.0     -3.26360     3      4      
iter:  13  00:02:49  -4.9   -3.0     -3.26399     2      3      
iter:  14  00:02:51  -5.1   -3.0     -3.26391     2      3      
iter:  15  00:02:54  -5.3   -3.0     -3.26352     2      4      
iter:  16  00:02:56  -5.6   -3.3     -3.26365     2      2      
iter:  17  00:02:58  -5.0   -3.4     -3.26364     3      3      
iter:  18  00:03:01  -5.9   -3.6     -3.26348     2      3      
iter:  19  00:03:03  -6.2   -3.5     -3.26378     2      3      
iter:  20  00:03:06  -6.1   -3.6     -3.26350     2      3      
iter:  21  00:03:08  -6.9   -3.9     -3.26364     2      3      
iter:  22  00:03:11  -7.2   -4.4     -3.26346     2      1      
iter:  23  00:03:13  -7.2   -4.5     -3.26349     2      2      
iter:  24  00:03:16  -7.7   -5.1     -3.26359     2      1      
iter:  25  00:03:18  -7.9   -5.1     -3.26358     1      1      
iter:  26  00:03:20  -8.3   -5.1     -3.26358     1      1      
iter:  27  00:03:23  -8.3   -5.1     -3.26351     2      1      
iter:  28  00:03:25  -8.8   -4.9     -3.26363     1      1      
iter:  29  00:03:28  -8.9   -5.2     -3.26361     1      1      
iter:  30  00:03:30  -9.2   -5.3     -3.26365     2      1      
------------------------------------
Converged After 30 Iterations.

Energy Contributions Relative to Reference Atom:(reference = -144464.58339)
-------------------------
Kinetic:        +11.28700
Potential:       -8.98621
External:        +0.00000
XC:              -5.68667
Entropy (-ST):   -0.03199
Local:           +0.13823
-------------------------
Free Energy:     -3.27964
Zero Kelvin:     -3.26365

Fermi Level: 11.15121


Total Charge:  -0.000000 electrons
Dipole Moment: [-0.79097604 -0.79097604 -0.79097604]

Memory estimate
---------------
Calculator  234.29 MiB
    Initial overhead  221.22 MiB
    Density  5.30 MiB
        Arrays  0.34 MiB
        Localized functions  4.25 MiB
        Mixer  0.08 MiB
        Interpolator  0.64 MiB
    Hamiltonian  2.06 MiB
        Arrays  0.22 MiB
        Restrictor  0.37 MiB
        XC 3D grid  0.11 MiB
        Poisson  1.03 MiB
        vbar  0.33 MiB
    Wavefunctions  5.71 MiB
        Arrays psit_nG  3.96 MiB
        Eigensolver  0.53 MiB
        Projectors  0.74 MiB
        Overlap op  0.40 MiB
        Kinetic operator  0.09 MiB

Positions:
  0 Ag    0.0000    0.0000    0.0000

                
                
                
                
       Ag       
                
                
                

Unit Cell:
           Periodic     X           Y           Z      Points  Spacing
  --------------------------------------------------------------------
  1. axis:    yes    0.000000    2.025000    2.025000    12     0.2386
  2. axis:    yes    2.025000    0.000000    2.025000    12     0.2386
  3. axis:    yes    2.025000    2.025000    0.000000    12     0.2386

Ag-setup:
  name   : Silver
  id     : aac732a7f42225a52edcbbb6e277d3cd
  Z      : 47
  valence: 11
  core   : 36
  charge : 0.0
  file   : /usr/share/gpaw-setups/Ag.LDA.gz
  cutoffs: 1.30(comp), 2.31(filt), 2.78(core), lmax=2
  valence states:
            energy   radius
    5s(1)   -4.708   1.296
    5p(0)   -0.844   1.296
    4d(10)  -7.664   1.296
    *s      22.503   1.296
    *p      26.368   1.296
    *d      19.547   1.296

Using partial waves for Ag as LCAO basis

Using the LDA Exchange-Correlation Functional.
Spin-Paired Calculation
Total Charge:      0.000000
Fermi Temperature: 0.100000
Mode: Finite-difference
Eigensolver:       rmm-diis
                   (3 nearest neighbors central finite-difference stencil)
Poisson Solver:    Jacobi 
                   (3 nearest neighbors central finite-difference stencil)
Interpolation:     6th Order
Reference Energy:  -144464.583386

Total number of cores used: 1
Diagonalizer layout: Serial LAPACK
Orthonormalizer layout: Serial LAPACK

Symmetries present: 48
10 k-points in the Irreducible Part of the Brillouin Zone (total: 64)
Linear Mixing Parameter:           0.1
Pulay Mixing with 3 Old Densities
Damping of Long Wave Oscillations: 50

Convergence Criteria:
Total Energy Change per Atom:           0.001 eV / atom
Integral of Absolute Density Change:    0.0001 electrons
Integral of Absolute Eigenstate Change: 1e-09
Number of Bands in Calculation:         15
Bands to Converge:                      Occupied States Only
Number of Valence Electrons:            11
                     log10-error:    Total        Iterations:
           Time      WFS    Density  Energy       Fermi  Poisson
iter:   1  00:03:39  +2.3            -3.75437     12     11     
iter:   2  00:03:41  -2.1            -4.02177     3             
iter:   3  00:03:43  -2.7            -4.07154     3             
iter:   4  00:03:45  -2.4   -1.4     -3.93010     4      6      
iter:   5  00:03:47  -1.4   -1.5     -3.69802     7      7      
iter:   6  00:03:49  -2.9   -2.0     -3.75429     3      5      
iter:   7  00:03:51  -3.4   -2.3     -3.75609     4      5      
iter:   8  00:03:53  -4.3   -3.2     -3.75694     2      3      
iter:   9  00:03:55  -4.6   -3.2     -3.75718     2      3      
iter:  10  00:03:58  -4.7   -3.1     -3.75750     3      4      
iter:  11  00:04:00  -5.0   -3.2     -3.75744     3      4      
iter:  12  00:04:02  -5.4   -3.1     -3.75780     2      2      
iter:  13  00:04:04  -5.3   -3.1     -3.75769     3      3      
iter:  14  00:04:06  -5.4   -3.2     -3.75742     3      3      
iter:  15  00:04:08  -5.9   -3.3     -3.75749     2      3      
iter:  16  00:04:10  -6.3   -3.4     -3.75754     2      2      
iter:  17  00:04:12  -6.5   -3.4     -3.75747     2      3      
iter:  18  00:04:14  -6.8   -3.8     -3.75765     2      2      
iter:  19  00:04:16  -6.9   -4.1     -3.75770     2      2      
iter:  20  00:04:18  -7.3   -4.7     -3.75787     2      1      
iter:  21  00:04:21  -7.6   -5.0     -3.75772     2      1      
iter:  22  00:04:23  -7.9   -5.1     -3.75758     1      1      
iter:  23  00:04:25  -7.9   -5.1     -3.75765     2      2      
iter:  24  00:04:27  -8.3   -4.6     -3.75754     2      2      
iter:  25  00:04:29  -8.6   -5.2     -3.75752     1      1      
iter:  26  00:04:31  -8.8   -5.3     -3.75756     2      1      
iter:  27  00:04:33  -9.2   -5.5     -3.75760     1      1      
------------------------------------
Converged After 27 Iterations.

Energy Contributions Relative to Reference Atom:(reference = -144464.58339)
-------------------------
Kinetic:         -7.88138
Potential:       +6.80319
External:        +0.00000
XC:              -2.78049
Entropy (-ST):   -0.01970
Local:           +0.11093
-------------------------
Free Energy:     -3.76745
Zero Kelvin:     -3.75760

Fermi Level: 7.38746


Total Charge:  -0.000000 electrons
Dipole Moment: [-0.92235944 -0.92235944 -0.92235944]

Memory estimate
---------------
Calculator  232.49 MiB
    Initial overhead  221.22 MiB
    Density  3.86 MiB
        Arrays  0.34 MiB
        Localized functions  2.81 MiB
        Mixer  0.08 MiB
        Interpolator  0.64 MiB
    Hamiltonian  1.95 MiB
        Arrays  0.22 MiB
        Restrictor  0.37 MiB
        XC 3D grid  0.11 MiB
        Poisson  1.03 MiB
        vbar  0.22 MiB
    Wavefunctions  5.46 MiB
        Arrays psit_nG  3.96 MiB
        Eigensolver  0.53 MiB
        Projectors  0.49 MiB
        Overlap op  0.40 MiB
        Kinetic operator  0.09 MiB

Positions:
  0 Ag    0.0000    0.0000    0.0000

                
                
                
                
       Ag       
                
                
                

Unit Cell:
           Periodic     X           Y           Z      Points  Spacing
  --------------------------------------------------------------------
  1. axis:    yes    0.000000    2.325000    2.325000    12     0.2740
  2. axis:    yes    2.325000    0.000000    2.325000    12     0.2740
  3. axis:    yes    2.325000    2.325000    0.000000    12     0.2740

Ag-setup:
  name   : Silver
  id     : aac732a7f42225a52edcbbb6e277d3cd
  Z      : 47
  valence: 11
  core   : 36
  charge : 0.0
  file   : /usr/share/gpaw-setups/Ag.LDA.gz
  cutoffs: 1.30(comp), 2.31(filt), 2.78(core), lmax=2
  valence states:
            energy   radius
    5s(1)   -4.708   1.296
    5p(0)   -0.844   1.296
    4d(10)  -7.664   1.296
    *s      22.503   1.296
    *p      26.368   1.296
    *d      19.547   1.296

Using partial waves for Ag as LCAO basis

Using the LDA Exchange-Correlation Functional.
Spin-Paired Calculation
Total Charge:      0.000000
Fermi Temperature: 0.100000
Mode: Finite-difference
Eigensolver:       rmm-diis
                   (3 nearest neighbors central finite-difference stencil)
Poisson Solver:    Jacobi 
                   (3 nearest neighbors central finite-difference stencil)
Interpolation:     6th Order
Reference Energy:  -144464.583386

Total number of cores used: 1
Diagonalizer layout: Serial LAPACK
Orthonormalizer layout: Serial LAPACK

Symmetries present: 48
10 k-points in the Irreducible Part of the Brillouin Zone (total: 64)
Linear Mixing Parameter:           0.1
Pulay Mixing with 3 Old Densities
Damping of Long Wave Oscillations: 50

Convergence Criteria:
Total Energy Change per Atom:           0.001 eV / atom
Integral of Absolute Density Change:    0.0001 electrons
Integral of Absolute Eigenstate Change: 1e-09
Number of Bands in Calculation:         15
Bands to Converge:                      Occupied States Only
Number of Valence Electrons:            11
                     log10-error:    Total        Iterations:
           Time      WFS    Density  Energy       Fermi  Poisson
iter:   1  00:04:39  +1.8            -3.19502     10     12     
iter:   2  00:04:40  -2.7            -3.28931     3             
iter:   3  00:04:42  -3.3            -3.30405     3             
iter:   4  00:04:43  -2.8   -1.5     -3.22424     3      6      
iter:   5  00:04:45  -1.9   -1.6     -3.11030     6      7      
iter:   6  00:04:47  -3.2   -1.9     -3.14173     4      6      
iter:   7  00:04:48  -3.6   -2.5     -3.14413     3      5      
iter:   8  00:04:50  -4.6   -3.1     -3.14466     3      4      
iter:   9  00:04:51  -5.2   -3.2     -3.14477     2      2      
iter:  10  00:04:53  -5.5   -3.2     -3.14508     3      3      
iter:  11  00:04:55  -5.6   -3.2     -3.14483     2      3      
iter:  12  00:04:56  -5.6   -3.2     -3.14519     2      3      
iter:  13  00:04:58  -6.2   -3.2     -3.14500     2      3      
iter:  14  00:04:59  -6.5   -3.2     -3.14488     2      2      
iter:  15  00:05:01  -5.6   -3.3     -3.14494     3      4      
iter:  16  00:05:03  -6.8   -3.7     -3.14505     2      2      
iter:  17  00:05:04  -6.7   -3.7     -3.14511     2      3      
iter:  18  00:05:06  -7.5   -3.8     -3.14496     2      2      
iter:  19  00:05:08  -6.9   -3.9     -3.14515     2      2      
iter:  20  00:05:09  -7.7   -4.1     -3.14508     2      2      
iter:  21  00:05:11  -8.0   -4.3     -3.14518     2      1      
iter:  22  00:05:12  -7.9   -4.4     -3.14527     2      1      
iter:  23  00:05:14  -8.5   -4.6     -3.14504     2      1      
iter:  24  00:05:16  -8.2   -4.7     -3.14495     2      2      
iter:  25  00:05:17  -8.9   -4.7     -3.14511     2      1      
iter:  26  00:05:19  -8.9   -4.8     -3.14511     2      1      
iter:  27  00:05:20  -9.5   -4.9     -3.14498     1      1      
------------------------------------
Converged After 27 Iterations.

Energy Contributions Relative to Reference Atom:(reference = -144464.58339)
-------------------------
Kinetic:        -14.78368
Potential:      +11.99555
External:        +0.00000
XC:              -0.44204
Entropy (-ST):   -0.01706
Local:           +0.09371
-------------------------
Free Energy:     -3.15351
Zero Kelvin:     -3.14498

Fermi Level: 2.83855


Total Charge:  0.000000 electrons
Dipole Moment: [-1.20744854 -1.20744854 -1.20744854]

Memory estimate
---------------
Calculator  233.27 MiB
    Initial overhead  221.22 MiB
    Density  4.49 MiB
        Arrays  0.34 MiB
        Localized functions  3.43 MiB
        Mixer  0.08 MiB
        Interpolator  0.64 MiB
    Hamiltonian  2.00 MiB
        Arrays  0.22 MiB
        Restrictor  0.37 MiB
        XC 3D grid  0.11 MiB
        Poisson  1.03 MiB
        vbar  0.26 MiB
    Wavefunctions  5.56 MiB
        Arrays psit_nG  3.96 MiB
        Eigensolver  0.53 MiB
        Projectors  0.59 MiB
        Overlap op  0.40 MiB
        Kinetic operator  0.09 MiB

Positions:
  0 Ag    0.0000    0.0000    0.0000

                
                
                
                
       Ag       
                
                
                

Unit Cell:
           Periodic     X           Y           Z      Points  Spacing
  --------------------------------------------------------------------
  1. axis:    yes    0.000000    2.175000    2.175000    12     0.2563
  2. axis:    yes    2.175000    0.000000    2.175000    12     0.2563
  3. axis:    yes    2.175000    2.175000    0.000000    12     0.2563

Ag-setup:
  name   : Silver
  id     : aac732a7f42225a52edcbbb6e277d3cd
  Z      : 47
  valence: 11
  core   : 36
  charge : 0.0
  file   : /usr/share/gpaw-setups/Ag.LDA.gz
  cutoffs: 1.30(comp), 2.31(filt), 2.78(core), lmax=2
  valence states:
            energy   radius
    5s(1)   -4.708   1.296
    5p(0)   -0.844   1.296
    4d(10)  -7.664   1.296
    *s      22.503   1.296
    *p      26.368   1.296
    *d      19.547   1.296

Using partial waves for Ag as LCAO basis

Using the LDA Exchange-Correlation Functional.
Spin-Paired Calculation
Total Charge:      0.000000
Fermi Temperature: 0.100000
Mode: Finite-difference
Eigensolver:       rmm-diis
                   (3 nearest neighbors central finite-difference stencil)
Poisson Solver:    Jacobi 
                   (3 nearest neighbors central finite-difference stencil)
Interpolation:     6th Order
Reference Energy:  -144464.583386

Total number of cores used: 1
Diagonalizer layout: Serial LAPACK
Orthonormalizer layout: Serial LAPACK

Symmetries present: 48
10 k-points in the Irreducible Part of the Brillouin Zone (total: 64)
Linear Mixing Parameter:           0.1
Pulay Mixing with 3 Old Densities
Damping of Long Wave Oscillations: 50

Convergence Criteria:
Total Energy Change per Atom:           0.001 eV / atom
Integral of Absolute Density Change:    0.0001 electrons
Integral of Absolute Eigenstate Change: 1e-09
Number of Bands in Calculation:         15
Bands to Converge:                      Occupied States Only
Number of Valence Electrons:            11
                     log10-error:    Total        Iterations:
           Time      WFS    Density  Energy       Fermi  Poisson
iter:   1  00:05:27  +2.1            -3.59674     11     12     
iter:   2  00:05:29  -2.4            -3.75184     3             
iter:   3  00:05:31  -3.0            -3.77961     3             
iter:   4  00:05:32  -2.6   -1.4     -3.66579     5      6      
iter:   5  00:05:34  -1.7   -1.5     -3.49739     7      7      
iter:   6  00:05:36  -3.0   -2.0     -3.53962     3      5      
iter:   7  00:05:38  -3.6   -2.4     -3.54272     3      5      
iter:   8  00:05:40  -4.5   -3.2     -3.54330     3      4      
iter:   9  00:05:42  -5.0   -3.3     -3.54353     2      3      
iter:  10  00:05:43  -5.2   -3.1     -3.54365     3      4      
iter:  11  00:05:45  -5.5   -3.4     -3.54363     2      3      
iter:  12  00:05:47  -5.8   -3.4     -3.54373     2      3      
iter:  13  00:05:49  -6.0   -3.5     -3.54373     2      3      
iter:  14  00:05:51  -6.3   -3.6     -3.54348     2      2      
iter:  15  00:05:53  -6.5   -3.7     -3.54357     2      2      
iter:  16  00:05:54  -6.5   -3.8     -3.54364     2      3      
iter:  17  00:05:56  -7.0   -4.1     -3.54351     2      1      
iter:  18  00:05:58  -7.1   -4.2     -3.54363     2      2      
iter:  19  00:06:00  -7.5   -4.2     -3.54346     1      1      
iter:  20  00:06:02  -7.7   -4.3     -3.54360     2      2      
iter:  21  00:06:03  -8.1   -4.4     -3.54369     1      1      
iter:  22  00:06:05  -8.0   -4.5     -3.54385     2      1      
iter:  23  00:06:07  -8.2   -4.8     -3.54375     2      1      
iter:  24  00:06:09  -8.6   -4.7     -3.54379     1      2      
iter:  25  00:06:11  -8.9   -4.8     -3.54362     2      1      
iter:  26  00:06:12  -8.5   -5.0     -3.54359     2      1      
iter:  27  00:06:14  -9.5   -4.9     -3.54386     1      1      
------------------------------------
Converged After 27 Iterations.

Energy Contributions Relative to Reference Atom:(reference = -144464.58339)
-------------------------
Kinetic:        -14.08996
Potential:      +11.69472
External:        +0.00000
XC:              -1.23615
Entropy (-ST):   -0.01736
Local:           +0.09622
-------------------------
Free Energy:     -3.55254
Zero Kelvin:     -3.54386

Fermi Level: 4.72875


Total Charge:  -0.000000 electrons
Dipole Moment: [-1.06086554 -1.06086554 -1.06086554]

Memory estimate
---------------
Calculator  235.67 MiB
    Initial overhead  221.22 MiB
    Density  6.41 MiB
        Arrays  0.34 MiB
        Localized functions  5.35 MiB
        Mixer  0.08 MiB
        Interpolator  0.64 MiB
    Hamiltonian  2.15 MiB
        Arrays  0.22 MiB
        Restrictor  0.37 MiB
        XC 3D grid  0.11 MiB
        Poisson  1.03 MiB
        vbar  0.41 MiB
    Wavefunctions  5.90 MiB
        Arrays psit_nG  3.96 MiB
        Eigensolver  0.53 MiB
        Projectors  0.93 MiB
        Overlap op  0.40 MiB
        Kinetic operator  0.09 MiB

Positions:
  0 Ag    0.0000    0.0000    0.0000

                
                
                
                
       Ag       
                
                
                

Unit Cell:
           Periodic     X           Y           Z      Points  Spacing
  --------------------------------------------------------------------
  1. axis:    yes    0.000000    1.875000    1.875000    12     0.2210
  2. axis:    yes    1.875000    0.000000    1.875000    12     0.2210
  3. axis:    yes    1.875000    1.875000    0.000000    12     0.2210

Ag-setup:
  name   : Silver
  id     : aac732a7f42225a52edcbbb6e277d3cd
  Z      : 47
  valence: 11
  core   : 36
  charge : 0.0
  file   : /usr/share/gpaw-setups/Ag.LDA.gz
  cutoffs: 1.30(comp), 2.31(filt), 2.78(core), lmax=2
  valence states:
            energy   radius
    5s(1)   -4.708   1.296
    5p(0)   -0.844   1.296
    4d(10)  -7.664   1.296
    *s      22.503   1.296
    *p      26.368   1.296
    *d      19.547   1.296

Using partial waves for Ag as LCAO basis

Using the LDA Exchange-Correlation Functional.
Spin-Paired Calculation
Total Charge:      0.000000
Fermi Temperature: 0.100000
Mode: Finite-difference
Eigensolver:       rmm-diis
                   (3 nearest neighbors central finite-difference stencil)
Poisson Solver:    Jacobi 
                   (3 nearest neighbors central finite-difference stencil)
Interpolation:     6th Order
Reference Energy:  -144464.583386

Total number of cores used: 1
Diagonalizer layout: Serial LAPACK
Orthonormalizer layout: Serial LAPACK

Symmetries present: 48
10 k-points in the Irreducible Part of the Brillouin Zone (total: 64)
Linear Mixing Parameter:           0.1
Pulay Mixing with 3 Old Densities
Damping of Long Wave Oscillations: 50

Convergence Criteria:
Total Energy Change per Atom:           0.001 eV / atom
Integral of Absolute Density Change:    0.0001 electrons
Integral of Absolute Eigenstate Change: 1e-09
Number of Bands in Calculation:         15
Bands to Converge:                      Occupied States Only
Number of Valence Electrons:            11
                     log10-error:    Total        Iterations:
           Time      WFS    Density  Energy       Fermi  Poisson
iter:   1  00:06:26  +2.5            -3.13357     13     11     
iter:   2  00:06:28  -1.7            -3.55521     4             
iter:   3  00:06:31  -2.3            -3.64013     3             
iter:   4  00:06:33  -2.2   -1.4     -3.49364     4      6      
iter:   5  00:06:36  -1.3   -1.5     -3.20662     7      7      
iter:   6  00:06:38  -2.8   -2.1     -3.26425     3      5      
iter:   7  00:06:41  -3.0   -2.2     -3.26005     3      5      
iter:   8  00:06:43  -3.8   -3.0     -3.26202     3      4      
iter:   9  00:06:46  -4.0   -3.0     -3.26258     3      4      
iter:  10  00:06:48  -4.3   -3.0     -3.26309     3      4      
iter:  11  00:06:51  -4.5   -2.8     -3.26342     3      4      
iter:  12  00:06:53  -4.5   -3.0     -3.26360     3      4      
iter:  13  00:06:56  -4.9   -3.0     -3.26399     2      3      
iter:  14  00:06:58  -5.1   -3.0     -3.26391     2      3      
iter:  15  00:07:00  -5.3   -3.0     -3.26352     2      4      
iter:  16  00:07:03  -5.6   -3.3     -3.26365     2      2      
iter:  17  00:07:05  -5.0   -3.4     -3.26364     3      3      
iter:  18  00:07:08  -5.9   -3.6     -3.26348     2      3      
iter:  19  00:07:10  -6.2   -3.5     -3.26378     2      3      
iter:  20  00:07:13  -6.1   -3.6     -3.26350     2      3      
iter:  21  00:07:15  -6.9   -3.9     -3.26364     2      3      
iter:  22  00:07:18  -7.2   -4.4     -3.26346     2      1      
iter:  23  00:07:20  -7.2   -4.5     -3.26349     2      2      
iter:  24  00:07:23  -7.7   -5.1     -3.26359     2      1      
iter:  25  00:07:25  -7.9   -5.1     -3.26358     1      1      
iter:  26  00:07:27  -8.3   -5.1     -3.26358     1      1      
iter:  27  00:07:30  -8.3   -5.1     -3.26351     2      1      
iter:  28  00:07:32  -8.8   -4.9     -3.26363     1      1      
iter:  29  00:07:35  -8.9   -5.2     -3.26361     1      1      
iter:  30  00:07:37  -9.2   -5.3     -3.26365     2      1      
------------------------------------
Converged After 30 Iterations.

Energy Contributions Relative to Reference Atom:(reference = -144464.58339)
-------------------------
Kinetic:        +11.28700
Potential:       -8.98621
External:        +0.00000
XC:              -5.68667
Entropy (-ST):   -0.03199
Local:           +0.13823
-------------------------
Free Energy:     -3.27964
Zero Kelvin:     -3.26365

Fermi Level: 11.15121


Total Charge:  -0.000000 electrons
Dipole Moment: [-0.79097604 -0.79097604 -0.79097604]

Memory estimate
---------------
Calculator  233.74 MiB
    Initial overhead  221.22 MiB
    Density  4.87 MiB
        Arrays  0.34 MiB
        Localized functions  3.81 MiB
        Mixer  0.08 MiB
        Interpolator  0.64 MiB
    Hamiltonian  2.03 MiB
        Arrays  0.22 MiB
        Restrictor  0.37 MiB
        XC 3D grid  0.11 MiB
        Poisson  1.03 MiB
        vbar  0.29 MiB
    Wavefunctions  5.63 MiB
        Arrays psit_nG  3.96 MiB
        Eigensolver  0.53 MiB
        Projectors  0.66 MiB
        Overlap op  0.40 MiB
        Kinetic operator  0.09 MiB

Positions:
  0 Ag    0.0000    0.0000    0.0000

                
                
                
                
       Ag       
                
                
                

Unit Cell:
           Periodic     X           Y           Z      Points  Spacing
  --------------------------------------------------------------------
  1. axis:    yes    0.000000    2.100000    2.100000    12     0.2475
  2. axis:    yes    2.100000    0.000000    2.100000    12     0.2475
  3. axis:    yes    2.100000    2.100000    0.000000    12     0.2475

Ag-setup:
  name   : Silver
  id     : aac732a7f42225a52edcbbb6e277d3cd
  Z      : 47
  valence: 11
  core   : 36
  charge : 0.0
  file   : /usr/share/gpaw-setups/Ag.LDA.gz
  cutoffs: 1.30(comp), 2.31(filt), 2.78(core), lmax=2
  valence states:
            energy   radius
    5s(1)   -4.708   1.296
    5p(0)   -0.844   1.296
    4d(10)  -7.664   1.296
    *s      22.503   1.296
    *p      26.368   1.296
    *d      19.547   1.296

Using partial waves for Ag as LCAO basis

Using the LDA Exchange-Correlation Functional.
Spin-Paired Calculation
Total Charge:      0.000000
Fermi Temperature: 0.100000
Mode: Finite-difference
Eigensolver:       rmm-diis
                   (3 nearest neighbors central finite-difference stencil)
Poisson Solver:    Jacobi 
                   (3 nearest neighbors central finite-difference stencil)
Interpolation:     6th Order
Reference Energy:  -144464.583386

Total number of cores used: 1
Diagonalizer layout: Serial LAPACK
Orthonormalizer layout: Serial LAPACK

Symmetries present: 48
10 k-points in the Irreducible Part of the Brillouin Zone (total: 64)
Linear Mixing Parameter:           0.1
Pulay Mixing with 3 Old Densities
Damping of Long Wave Oscillations: 50

Convergence Criteria:
Total Energy Change per Atom:           0.001 eV / atom
Integral of Absolute Density Change:    0.0001 electrons
Integral of Absolute Eigenstate Change: 1e-09
Number of Bands in Calculation:         15
Bands to Converge:                      Occupied States Only
Number of Valence Electrons:            11
                     log10-error:    Total        Iterations:
           Time      WFS    Density  Energy       Fermi  Poisson
iter:   1  00:07:45  +2.2            -3.72810     12     11     
iter:   2  00:07:47  -2.3            -3.93224     3             
iter:   3  00:07:49  -2.9            -3.96935     3             
iter:   4  00:07:50  -2.5   -1.4     -3.84013     5      6      
iter:   5  00:07:52  -1.6   -1.5     -3.63735     7      7      
iter:   6  00:07:54  -2.9   -2.0     -3.68901     3      5      
iter:   7  00:07:56  -3.5   -2.4     -3.69190     4      5      
iter:   8  00:07:58  -4.4   -3.2     -3.69258     3      4      
iter:   9  00:08:00  -4.8   -3.3     -3.69278     2      3      
iter:  10  00:08:02  -4.9   -3.1     -3.69322     3      3      
iter:  11  00:08:04  -5.3   -3.3     -3.69291     2      3      
iter:  12  00:08:06  -5.4   -3.2     -3.69318     2      3      
iter:  13  00:08:08  -5.8   -3.3     -3.69305     2      3      
iter:  14  00:08:10  -5.7   -3.3     -3.69293     2      3      
iter:  15  00:08:12  -6.2   -3.5     -3.69284     2      2      
iter:  16  00:08:14  -6.4   -3.5     -3.69280     2      2      
iter:  17  00:08:16  -6.7   -3.6     -3.69288     2      2      
iter:  18  00:08:18  -6.6   -3.7     -3.69313     2      2      
iter:  19  00:08:19  -7.1   -3.9     -3.69330     2      1      
iter:  20  00:08:21  -6.8   -4.0     -3.69322     2      2      
iter:  21  00:08:23  -7.7   -4.2     -3.69295     2      1      
iter:  22  00:08:25  -7.6   -4.4     -3.69284     2      1      
iter:  23  00:08:27  -8.1   -4.4     -3.69286     2      1      
iter:  24  00:08:29  -8.1   -4.5     -3.69300     2      2      
iter:  25  00:08:31  -8.5   -5.0     -3.69320     2      1      
iter:  26  00:08:33  -8.9   -5.2     -3.69310     1      1      
iter:  27  00:08:35  -9.0   -5.2     -3.69305     1      1      
------------------------------------
Converged After 27 Iterations.

Energy Contributions Relative to Reference Atom:(reference = -144464.58339)
-------------------------
Kinetic:        -11.84851
Potential:       +9.96310
External:        +0.00000
XC:              -1.89240
Entropy (-ST):   -0.01796
Local:           +0.09374
-------------------------
Free Energy:     -3.70203
Zero Kelvin:     -3.69305

Fermi Level: 5.94378


Total Charge:  0.000000 electrons
Dipole Moment: [-0.99064156 -0.99064156 -0.99064156]

Memory estimate
---------------
Calculator  234.93 MiB
    Initial overhead  221.22 MiB
    Density  5.81 MiB
        Arrays  0.34 MiB
        Localized functions  4.75 MiB
        Mixer  0.08 MiB
        Interpolator  0.64 MiB
    Hamiltonian  2.10 MiB
        Arrays  0.22 MiB
        Restrictor  0.37 MiB
        XC 3D grid  0.11 MiB
        Poisson  1.03 MiB
        vbar  0.37 MiB
    Wavefunctions  5.79 MiB
        Arrays psit_nG  3.96 MiB
        Eigensolver  0.53 MiB
        Projectors  0.82 MiB
        Overlap op  0.40 MiB
        Kinetic operator  0.09 MiB

Positions:
  0 Ag    0.0000    0.0000    0.0000

                
                
                
                
       Ag       
                
                
                

Unit Cell:
           Periodic     X           Y           Z      Points  Spacing
  --------------------------------------------------------------------
  1. axis:    yes    0.000000    1.950000    1.950000    12     0.2298
  2. axis:    yes    1.950000    0.000000    1.950000    12     0.2298
  3. axis:    yes    1.950000    1.950000    0.000000    12     0.2298

Ag-setup:
  name   : Silver
  id     : aac732a7f42225a52edcbbb6e277d3cd
  Z      : 47
  valence: 11
  core   : 36
  charge : 0.0
  file   : /usr/share/gpaw-setups/Ag.LDA.gz
  cutoffs: 1.30(comp), 2.31(filt), 2.78(core), lmax=2
  valence states:
            energy   radius
    5s(1)   -4.708   1.296
    5p(0)   -0.844   1.296
    4d(10)  -7.664   1.296
    *s      22.503   1.296
    *p      26.368   1.296
    *d      19.547   1.296

Using partial waves for Ag as LCAO basis

Using the LDA Exchange-Correlation Functional.
Spin-Paired Calculation
Total Charge:      0.000000
Fermi Temperature: 0.100000
Mode: Finite-difference
Eigensolver:       rmm-diis
                   (3 nearest neighbors central finite-difference stencil)
Poisson Solver:    Jacobi 
                   (3 nearest neighbors central finite-difference stencil)
Interpolation:     6th Order
Reference Energy:  -144464.583386

Total number of cores used: 1
Diagonalizer layout: Serial LAPACK
Orthonormalizer layout: Serial LAPACK

Symmetries present: 48
10 k-points in the Irreducible Part of the Brillouin Zone (total: 64)
Linear Mixing Parameter:           0.1
Pulay Mixing with 3 Old Densities
Damping of Long Wave Oscillations: 50

Convergence Criteria:
Total Energy Change per Atom:           0.001 eV / atom
Integral of Absolute Density Change:    0.0001 electrons
Integral of Absolute Eigenstate Change: 1e-09
Number of Bands in Calculation:         15
Bands to Converge:                      Occupied States Only
Number of Valence Electrons:            11
                     log10-error:    Total        Iterations:
           Time      WFS    Density  Energy       Fermi  Poisson
iter:   1  00:08:45  +2.4            -3.59253     12     11     
iter:   2  00:08:47  -1.9            -3.93616     3             
iter:   3  00:08:49  -2.5            -4.00334     3             
iter:   4  00:08:51  -2.3   -1.4     -3.85493     4      6      
iter:   5  00:08:54  -1.4   -1.5     -3.59776     7      7      
iter:   6  00:08:56  -2.8   -2.1     -3.65374     3      5      
iter:   7  00:08:58  -3.2   -2.3     -3.65335     3      5      
iter:   8  00:09:00  -4.1   -3.1     -3.65466     2      3      
iter:   9  00:09:03  -4.5   -3.1     -3.65514     2      3      
iter:  10  00:09:05  -4.7   -2.9     -3.65538     2      3      
iter:  11  00:09:07  -5.0   -3.0     -3.65540     2      2      
iter:  12  00:09:09  -4.8   -3.0     -3.65556     3      4      
iter:  13  00:09:12  -5.4   -3.4     -3.65565     2      2      
iter:  14  00:09:14  -5.4   -3.4     -3.65567     2      3      
iter:  15  00:09:16  -5.9   -3.6     -3.65546     2      2      
iter:  16  00:09:18  -5.8   -3.6     -3.65547     2      3      
iter:  17  00:09:20  -6.4   -3.8     -3.65571     2      2      
iter:  18  00:09:23  -6.7   -4.0     -3.65556     2      1      
iter:  19  00:09:25  -6.8   -4.1     -3.65548     2      2      
iter:  20  00:09:27  -7.1   -4.2     -3.65571     2      1      
iter:  21  00:09:29  -7.4   -4.4     -3.65570     2      2      
iter:  22  00:09:32  -7.5   -4.7     -3.65572     2      2      
iter:  23  00:09:34  -7.8   -5.0     -3.65566     2      1      
iter:  24  00:09:36  -8.1   -5.2     -3.65562     1      1      
iter:  25  00:09:38  -8.3   -5.2     -3.65576     2      1      
iter:  26  00:09:40  -8.6   -5.0     -3.65559     2      1      
iter:  27  00:09:43  -8.8   -5.0     -3.65560     1      1      
iter:  28  00:09:45  -9.0   -5.1     -3.65561     1      1      
------------------------------------
Converged After 28 Iterations.

Energy Contributions Relative to Reference Atom:(reference = -144464.58339)
-------------------------
Kinetic:         -0.68524
Potential:       +0.92425
External:        +0.00000
XC:              -4.00797
Entropy (-ST):   -0.02416
Local:           +0.12542
-------------------------
Free Energy:     -3.66770
Zero Kelvin:     -3.65561

Fermi Level: 9.10485


Total Charge:  -0.000000 electrons
Dipole Moment: [-0.85581387 -0.85581387 -0.85581387]

Memory estimate
---------------
Calculator  234.47 MiB
    Initial overhead  221.69 MiB
    Density  5.08 MiB
        Arrays  0.34 MiB
        Localized functions  4.02 MiB
        Mixer  0.08 MiB
        Interpolator  0.64 MiB
    Hamiltonian  2.04 MiB
        Arrays  0.22 MiB
        Restrictor  0.37 MiB
        XC 3D grid  0.11 MiB
        Poisson  1.03 MiB
        vbar  0.31 MiB
    Wavefunctions  5.67 MiB
        Arrays psit_nG  3.96 MiB
        Eigensolver  0.53 MiB
        Projectors  0.70 MiB
        Overlap op  0.40 MiB
        Kinetic operator  0.09 MiB

Positions:
  0 Ag    0.0000    0.0000    0.0000

                
                
                
                
       Ag       
                
                
                

Unit Cell:
           Periodic     X           Y           Z      Points  Spacing
  --------------------------------------------------------------------
  1. axis:    yes    0.000000    2.062500    2.062500    12     0.2431
  2. axis:    yes    2.062500    0.000000    2.062500    12     0.2431
  3. axis:    yes    2.062500    2.062500    0.000000    12     0.2431

Ag-setup:
  name   : Silver
  id     : aac732a7f42225a52edcbbb6e277d3cd
  Z      : 47
  valence: 11
  core   : 36
  charge : 0.0
  file   : /usr/share/gpaw-setups/Ag.LDA.gz
  cutoffs: 1.30(comp), 2.31(filt), 2.78(core), lmax=2
  valence states:
            energy   radius
    5s(1)   -4.708   1.296
    5p(0)   -0.844   1.296
    4d(10)  -7.664   1.296
    *s      22.503   1.296
    *p      26.368   1.296
    *d      19.547   1.296

Using partial waves for Ag as LCAO basis

Using the LDA Exchange-Correlation Functional.
Spin-Paired Calculation
Total Charge:      0.000000
Fermi Temperature: 0.100000
Mode: Finite-difference
Eigensolver:       rmm-diis
                   (3 nearest neighbors central finite-difference stencil)
Poisson Solver:    Jacobi 
                   (3 nearest neighbors central finite-difference stencil)
Interpolation:     6th Order
Reference Energy:  -144464.583386

Total number of cores used: 1
Diagonalizer layout: Serial LAPACK
Orthonormalizer layout: Serial LAPACK

Symmetries present: 48
10 k-points in the Irreducible Part of the Brillouin Zone (total: 64)
Linear Mixing Parameter:           0.1
Pulay Mixing with 3 Old Densities
Damping of Long Wave Oscillations: 50

Convergence Criteria:
Total Energy Change per Atom:           0.001 eV / atom
Integral of Absolute Density Change:    0.0001 electrons
Integral of Absolute Eigenstate Change: 1e-09
Number of Bands in Calculation:         15
Bands to Converge:                      Occupied States Only
Number of Valence Electrons:            11
                     log10-error:    Total        Iterations:
           Time      WFS    Density  Energy       Fermi  Poisson
iter:   1  00:09:53  +2.2            -3.75811     12     11     
iter:   2  00:09:55  -2.2            -3.99260     3             
iter:   3  00:09:57  -2.8            -4.03598     3             
iter:   4  00:09:59  -2.4   -1.4     -3.90025     5      6      
iter:   5  00:10:01  -1.5   -1.5     -3.68159     7      7      
iter:   6  00:10:03  -2.9   -2.0     -3.73664     2      5      
iter:   7  00:10:05  -3.4   -2.4     -3.73916     4      5      
iter:   8  00:10:07  -4.3   -3.2     -3.73988     2      3      
iter:   9  00:10:09  -4.7   -3.2     -3.74015     2      3      
iter:  10  00:10:11  -4.8   -3.1     -3.74069     3      3      
iter:  11  00:10:13  -5.1   -3.2     -3.74024     3      3      
iter:  12  00:10:15  -5.4   -3.1     -3.74058     2      3      
iter:  13  00:10:17  -5.6   -3.2     -3.74052     2      3      
iter:  14  00:10:19  -5.9   -3.3     -3.74046     2      3      
iter:  15  00:10:21  -5.3   -3.3     -3.74044     3      4      
iter:  16  00:10:23  -6.0   -3.5     -3.74065     2      3      
iter:  17  00:10:25  -6.5   -3.6     -3.74045     2      3      
iter:  18  00:10:27  -6.8   -3.8     -3.74041     2      2      
iter:  19  00:10:29  -6.5   -3.9     -3.74066     2      2      
iter:  20  00:10:31  -7.2   -4.2     -3.74058     2      2      
iter:  21  00:10:33  -7.6   -4.3     -3.74075     2      1      
iter:  22  00:10:35  -7.8   -4.4     -3.74071     2      1      
iter:  23  00:10:37  -7.7   -4.3     -3.74044     2      2      
iter:  24  00:10:39  -8.3   -4.4     -3.74051     2      1      
iter:  25  00:10:41  -7.6   -4.5     -3.74068     2      1      
iter:  26  00:10:43  -8.7   -4.5     -3.74045     1      1      
iter:  27  00:10:45  -9.0   -4.5     -3.74070     1      1      
------------------------------------
Converged After 27 Iterations.

Energy Contributions Relative to Reference Atom:(reference = -144464.58339)
-------------------------
Kinetic:        -10.12317
Potential:       +8.59524
External:        +0.00000
XC:              -2.30245
Entropy (-ST):   -0.01861
Local:           +0.09899
-------------------------
Free Energy:     -3.75000
Zero Kelvin:     -3.74070

Fermi Level: 6.63439


Total Charge:  0.000000 electrons
Dipole Moment: [-0.95629339 -0.95629339 -0.95629339]

Memory estimate
---------------
Calculator  236.58 MiB
    Initial overhead  223.20 MiB
    Density  5.55 MiB
        Arrays  0.34 MiB
        Localized functions  4.49 MiB
        Mixer  0.08 MiB
        Interpolator  0.64 MiB
    Hamiltonian  2.08 MiB
        Arrays  0.22 MiB
        Restrictor  0.37 MiB
        XC 3D grid  0.11 MiB
        Poisson  1.03 MiB
        vbar  0.35 MiB
    Wavefunctions  5.75 MiB
        Arrays psit_nG  3.96 MiB
        Eigensolver  0.53 MiB
        Projectors  0.78 MiB
        Overlap op  0.40 MiB
        Kinetic operator  0.09 MiB

Positions:
  0 Ag    0.0000    0.0000    0.0000

                
                
                
                
       Ag       
                
                
                

Unit Cell:
           Periodic     X           Y           Z      Points  Spacing
  --------------------------------------------------------------------
  1. axis:    yes    0.000000    1.987500    1.987500    12     0.2342
  2. axis:    yes    1.987500    0.000000    1.987500    12     0.2342
  3. axis:    yes    1.987500    1.987500    0.000000    12     0.2342

Ag-setup:
  name   : Silver
  id     : aac732a7f42225a52edcbbb6e277d3cd
  Z      : 47
  valence: 11
  core   : 36
  charge : 0.0
  file   : /usr/share/gpaw-setups/Ag.LDA.gz
  cutoffs: 1.30(comp), 2.31(filt), 2.78(core), lmax=2
  valence states:
            energy   radius
    5s(1)   -4.708   1.296
    5p(0)   -0.844   1.296
    4d(10)  -7.664   1.296
    *s      22.503   1.296
    *p      26.368   1.296
    *d      19.547   1.296

Using partial waves for Ag as LCAO basis

Using the LDA Exchange-Correlation Functional.
Spin-Paired Calculation
Total Charge:      0.000000
Fermi Temperature: 0.100000
Mode: Finite-difference
Eigensolver:       rmm-diis
                   (3 nearest neighbors central finite-difference stencil)
Poisson Solver:    Jacobi 
                   (3 nearest neighbors central finite-difference stencil)
Interpolation:     6th Order
Reference Energy:  -144464.583386

Total number of cores used: 1
Diagonalizer layout: Serial LAPACK
Orthonormalizer layout: Serial LAPACK

Symmetries present: 48
10 k-points in the Irreducible Part of the Brillouin Zone (total: 64)
Linear Mixing Parameter:           0.1
Pulay Mixing with 3 Old Densities
Damping of Long Wave Oscillations: 50

Convergence Criteria:
Total Energy Change per Atom:           0.001 eV / atom
Integral of Absolute Density Change:    0.0001 electrons
Integral of Absolute Eigenstate Change: 1e-09
Number of Bands in Calculation:         15
Bands to Converge:                      Occupied States Only
Number of Valence Electrons:            11
                     log10-error:    Total        Iterations:
           Time      WFS    Density  Energy       Fermi  Poisson
iter:   1  00:10:55  +2.3            -3.70118     12     11     
iter:   2  00:10:57  -2.0            -4.00649     3             
iter:   3  00:10:59  -2.6            -4.06435     3             
iter:   4  00:11:01  -2.3   -1.4     -3.91867     4      6      
iter:   5  00:11:03  -1.4   -1.5     -3.67399     7      7      
iter:   6  00:11:05  -2.9   -2.0     -3.73036     3      5      
iter:   7  00:11:07  -3.2   -2.3     -3.73125     4      5      
iter:   8  00:11:10  -4.3   -3.2     -3.73241     2      3      
iter:   9  00:11:12  -4.5   -3.2     -3.73265     2      3      
iter:  10  00:11:14  -4.8   -3.0     -3.73312     3      3      
iter:  11  00:11:16  -5.1   -3.1     -3.73298     2      3      
iter:  12  00:11:18  -5.3   -3.1     -3.73302     2      3      
iter:  13  00:11:21  -5.4   -3.1     -3.73303     2      4      
iter:  14  00:11:23  -5.6   -3.4     -3.73311     2      3      
iter:  15  00:11:25  -6.0   -3.5     -3.73306     2      2      
iter:  16  00:11:27  -6.0   -3.6     -3.73322     2      2      
iter:  17  00:11:29  -6.1   -3.8     -3.73320     2      3      
iter:  18  00:11:31  -6.6   -4.0     -3.73318     2      2      
iter:  19  00:11:34  -6.9   -4.1     -3.73330     2      1      
iter:  20  00:11:36  -7.2   -4.2     -3.73317     2      2      
iter:  21  00:11:38  -7.5   -5.2     -3.73317     2      1      
iter:  22  00:11:40  -7.8   -5.6     -3.73316     2      1      
iter:  23  00:11:42  -8.0   -5.5     -3.73313     1      1      
iter:  24  00:11:44  -8.3   -5.3     -3.73314     1      1      
iter:  25  00:11:46  -8.5   -5.3     -3.73314     1      1      
iter:  26  00:11:49  -8.9   -5.3     -3.73312     1      1      
iter:  27  00:11:51  -9.1   -5.3     -3.73311     1      1      
------------------------------------
Converged After 27 Iterations.

Energy Contributions Relative to Reference Atom:(reference = -144464.58339)
-------------------------
Kinetic:         -4.76541
Potential:       +4.27015
External:        +0.00000
XC:              -3.34569
Entropy (-ST):   -0.02148
Local:           +0.11858
-------------------------
Free Energy:     -3.74385
Zero Kelvin:     -3.73311

Fermi Level: 8.20882


Total Charge:  -0.000000 electrons
Dipole Moment: [-0.88887152 -0.88887152 -0.88887152]

Memory estimate
---------------
Calculator  244.24 MiB
    Initial overhead  231.31 MiB
    Density  5.19 MiB
        Arrays  0.34 MiB
        Localized functions  4.13 MiB
        Mixer  0.08 MiB
        Interpolator  0.64 MiB
    Hamiltonian  2.05 MiB
        Arrays  0.22 MiB
        Restrictor  0.37 MiB
        XC 3D grid  0.11 MiB
        Poisson  1.03 MiB
        vbar  0.32 MiB
    Wavefunctions  5.69 MiB
        Arrays psit_nG  3.96 MiB
        Eigensolver  0.53 MiB
        Projectors  0.72 MiB
        Overlap op  0.40 MiB
        Kinetic operator  0.09 MiB

Positions:
  0 Ag    0.0000    0.0000    0.0000

                
                
                
                
       Ag       
                
                
                

Unit Cell:
           Periodic     X           Y           Z      Points  Spacing
  --------------------------------------------------------------------
  1. axis:    yes    0.000000    2.043750    2.043750    12     0.2409
  2. axis:    yes    2.043750    0.000000    2.043750    12     0.2409
  3. axis:    yes    2.043750    2.043750    0.000000    12     0.2409

Ag-setup:
  name   : Silver
  id     : aac732a7f42225a52edcbbb6e277d3cd
  Z      : 47
  valence: 11
  core   : 36
  charge : 0.0
  file   : /usr/share/gpaw-setups/Ag.LDA.gz
  cutoffs: 1.30(comp), 2.31(filt), 2.78(core), lmax=2
  valence states:
            energy   radius
    5s(1)   -4.708   1.296
    5p(0)   -0.844   1.296
    4d(10)  -7.664   1.296
    *s      22.503   1.296
    *p      26.368   1.296
    *d      19.547   1.296

Using partial waves for Ag as LCAO basis

Using the LDA Exchange-Correlation Functional.
Spin-Paired Calculation
Total Charge:      0.000000
Fermi Temperature: 0.100000
Mode: Finite-difference
Eigensolver:       rmm-diis
                   (3 nearest neighbors central finite-difference stencil)
Poisson Solver:    Jacobi 
                   (3 nearest neighbors central finite-difference stencil)
Interpolation:     6th Order
Reference Energy:  -144464.583386

Total number of cores used: 1
Diagonalizer layout: Serial LAPACK
Orthonormalizer layout: Serial LAPACK

Symmetries present: 48
10 k-points in the Irreducible Part of the Brillouin Zone (total: 64)
Linear Mixing Parameter:           0.1
Pulay Mixing with 3 Old Densities
Damping of Long Wave Oscillations: 50

Convergence Criteria:
Total Energy Change per Atom:           0.001 eV / atom
Integral of Absolute Density Change:    0.0001 electrons
Integral of Absolute Eigenstate Change: 1e-09
Number of Bands in Calculation:         15
Bands to Converge:                      Occupied States Only
Number of Valence Electrons:            11
                     log10-error:    Total        Iterations:
           Time      WFS    Density  Energy       Fermi  Poisson
iter:   1  00:11:59  +2.3            -3.76098     11     11     
iter:   2  00:12:01  -2.1            -4.01189     3             
iter:   3  00:12:03  -2.8            -4.05834     3             
iter:   4  00:12:05  -2.4   -1.4     -3.91964     4      6      
iter:   5  00:12:07  -1.5   -1.5     -3.69398     7      7      
iter:   6  00:12:09  -2.9   -2.0     -3.74991     2      5      
iter:   7  00:12:11  -3.4   -2.4     -3.75208     4      5      
iter:   8  00:12:13  -4.3   -3.2     -3.75293     2      3      
iter:   9  00:12:15  -4.7   -3.2     -3.75316     2      3      
iter:  10  00:12:17  -4.8   -3.1     -3.75347     3      4      
iter:  11  00:12:20  -5.0   -3.2     -3.75339     3      4      
iter:  12  00:12:22  -5.4   -3.1     -3.75365     2      2      
iter:  13  00:12:24  -5.1   -3.2     -3.75355     3      5      
iter:  14  00:12:26  -5.8   -2.9     -3.75359     2      4      
iter:  15  00:12:28  -6.2   -3.5     -3.75340     2      2      
iter:  16  00:12:30  -6.2   -3.7     -3.75345     2      3      
iter:  17  00:12:32  -6.6   -4.1     -3.75322     2      1      
iter:  18  00:12:34  -6.8   -4.1     -3.75347     2      2      
iter:  19  00:12:36  -7.1   -4.3     -3.75351     2      2      
iter:  20  00:12:38  -7.3   -4.5     -3.75352     2      2      
iter:  21  00:12:40  -7.6   -4.7     -3.75334     2      1      
iter:  22  00:12:42  -7.8   -4.8     -3.75349     1      2      
iter:  23  00:12:44  -8.2   -5.4     -3.75362     2      1      
iter:  24  00:12:46  -8.4   -5.5     -3.75353     1      1      
iter:  25  00:12:48  -8.7   -5.6     -3.75361     2      1      
iter:  26  00:12:50  -8.9   -5.2     -3.75353     1      1      
iter:  27  00:12:52  -9.1   -5.5     -3.75351     1      1      
------------------------------------
Converged After 27 Iterations.

Energy Contributions Relative to Reference Atom:(reference = -144464.58339)
-------------------------
Kinetic:         -9.11459
Potential:       +7.79564
External:        +0.00000
XC:              -2.53102
Entropy (-ST):   -0.01908
Local:           +0.10601
-------------------------
Free Energy:     -3.76305
Zero Kelvin:     -3.75351

Fermi Level: 7.00279


Total Charge:  -0.000000 electrons
Dipole Moment: [-0.93926507 -0.93926507 -0.93926507]

Memory estimate
---------------
Calculator  247.61 MiB
    Initial overhead  234.39 MiB
    Density  5.42 MiB
        Arrays  0.34 MiB
        Localized functions  4.37 MiB
        Mixer  0.08 MiB
        Interpolator  0.64 MiB
    Hamiltonian  2.07 MiB
        Arrays  0.22 MiB
        Restrictor  0.37 MiB
        XC 3D grid  0.11 MiB
        Poisson  1.03 MiB
        vbar  0.34 MiB
    Wavefunctions  5.73 MiB
        Arrays psit_nG  3.96 MiB
        Eigensolver  0.53 MiB
        Projectors  0.76 MiB
        Overlap op  0.40 MiB
        Kinetic operator  0.09 MiB

Positions:
  0 Ag    0.0000    0.0000    0.0000

                
                
                
                
       Ag       
                
                
                

Unit Cell:
           Periodic     X           Y           Z      Points  Spacing
  --------------------------------------------------------------------
  1. axis:    yes    0.000000    2.006250    2.006250    12     0.2364
  2. axis:    yes    2.006250    0.000000    2.006250    12     0.2364
  3. axis:    yes    2.006250    2.006250    0.000000    12     0.2364

Ag-setup:
  name   : Silver
  id     : aac732a7f42225a52edcbbb6e277d3cd
  Z      : 47
  valence: 11
  core   : 36
  charge : 0.0
  file   : /usr/share/gpaw-setups/Ag.LDA.gz
  cutoffs: 1.30(comp), 2.31(filt), 2.78(core), lmax=2
  valence states:
            energy   radius
    5s(1)   -4.708   1.296
    5p(0)   -0.844   1.296
    4d(10)  -7.664   1.296
    *s      22.503   1.296
    *p      26.368   1.296
    *d      19.547   1.296

Using partial waves for Ag as LCAO basis

Using the LDA Exchange-Correlation Functional.
Spin-Paired Calculation
Total Charge:      0.000000
Fermi Temperature: 0.100000
Mode: Finite-difference
Eigensolver:       rmm-diis
                   (3 nearest neighbors central finite-difference stencil)
Poisson Solver:    Jacobi 
                   (3 nearest neighbors central finite-difference stencil)
Interpolation:     6th Order
Reference Energy:  -144464.583386

Total number of cores used: 1
Diagonalizer layout: Serial LAPACK
Orthonormalizer layout: Serial LAPACK

Symmetries present: 48
10 k-points in the Irreducible Part of the Brillouin Zone (total: 64)
Linear Mixing Parameter:           0.1
Pulay Mixing with 3 Old Densities
Damping of Long Wave Oscillations: 50

Convergence Criteria:
Total Energy Change per Atom:           0.001 eV / atom
Integral of Absolute Density Change:    0.0001 electrons
Integral of Absolute Eigenstate Change: 1e-09
Number of Bands in Calculation:         15
Bands to Converge:                      Occupied States Only
Number of Valence Electrons:            11
                     log10-error:    Total        Iterations:
           Time      WFS    Density  Energy       Fermi  Poisson
iter:   1  00:13:01  +2.3            -3.73516     12     11     
iter:   2  00:13:03  -2.0            -4.02043     3             
iter:   3  00:13:05  -2.7            -4.07390     3             
iter:   4  00:13:07  -2.3   -1.4     -3.93017     4      6      
iter:   5  00:13:09  -1.4   -1.5     -3.69109     7      7      
iter:   6  00:13:11  -2.9   -2.0     -3.74812     3      5      
iter:   7  00:13:13  -3.3   -2.3     -3.74950     4      5      
iter:   8  00:13:16  -4.3   -3.2     -3.75050     2      3      
iter:   9  00:13:18  -4.6   -3.2     -3.75072     2      3      
iter:  10  00:13:20  -4.7   -3.0     -3.75104     3      4      
iter:  11  00:13:22  -5.0   -3.1     -3.75102     3      4      
iter:  12  00:13:24  -5.4   -3.1     -3.75102     2      2      
iter:  13  00:13:26  -5.5   -3.1     -3.75109     2      4      
iter:  14  00:13:28  -5.7   -3.2     -3.75119     2      4      
iter:  15  00:13:30  -6.1   -3.4     -3.75113     2      4      
iter:  16  00:13:32  -6.4   -3.9     -3.75102     2      2      
iter:  17  00:13:34  -6.5   -4.1     -3.75091     2      2      
iter:  18  00:13:37  -6.9   -4.3     -3.75110     2      2      
iter:  19  00:13:39  -7.2   -4.3     -3.75123     2      1      
iter:  20  00:13:41  -7.4   -4.4     -3.75115     2      2      
iter:  21  00:13:43  -7.4   -4.3     -3.75108     2      2      
iter:  22  00:13:45  -7.9   -4.4     -3.75115     2      2      
iter:  23  00:13:47  -8.0   -5.0     -3.75119     2      1      
iter:  24  00:13:49  -8.3   -5.1     -3.75122     2      1      
iter:  25  00:13:51  -8.6   -5.4     -3.75118     2      1      
iter:  26  00:13:53  -8.9   -5.5     -3.75116     1      1      
iter:  27  00:13:55  -9.2   -5.5     -3.75115     1      1      
------------------------------------
Converged After 27 Iterations.

Energy Contributions Relative to Reference Atom:(reference = -144464.58339)
-------------------------
Kinetic:         -6.43160
Potential:       +5.62764
External:        +0.00000
XC:              -3.05192
Entropy (-ST):   -0.02049
Local:           +0.11499
-------------------------
Free Energy:     -3.76139
Zero Kelvin:     -3.75115

Fermi Level: 7.78924


Total Charge:  -0.000000 electrons
Dipole Moment: [-0.9055602 -0.9055602 -0.9055602]

Memory estimate
---------------
Calculator  255.98 MiB
    Initial overhead  242.98 MiB
    Density  5.25 MiB
        Arrays  0.34 MiB
        Localized functions  4.19 MiB
        Mixer  0.08 MiB
        Interpolator  0.64 MiB
    Hamiltonian  2.06 MiB
        Arrays  0.22 MiB
        Restrictor  0.37 MiB
        XC 3D grid  0.11 MiB
        Poisson  1.03 MiB
        vbar  0.32 MiB
    Wavefunctions  5.70 MiB
        Arrays psit_nG  3.96 MiB
        Eigensolver  0.53 MiB
[...]
iter:  28  00:31:34  -9.1   -5.2     -3.75766     1      1      
------------------------------------
Converged After 28 Iterations.

Energy Contributions Relative to Reference Atom:(reference = -144464.58339)
-------------------------
Kinetic:         -8.09079
Potential:       +6.97050
External:        +0.00000
XC:              -2.73665
Entropy (-ST):   -0.01958
Local:           +0.10907
-------------------------
Free Energy:     -3.76745
Zero Kelvin:     -3.75766

Fermi Level: 7.32014


Total Charge:  -0.000000 electrons
Dipole Moment: [-0.92526477 -0.92526477 -0.92526477]

Memory estimate
---------------
Calculator  333.08 MiB
    Initial overhead  320.03 MiB
    Density  5.28 MiB
        Arrays  0.34 MiB
        Localized functions  4.22 MiB
        Mixer  0.08 MiB
        Interpolator  0.64 MiB
    Hamiltonian  2.06 MiB
        Arrays  0.22 MiB
        Restrictor  0.37 MiB
        XC 3D grid  0.11 MiB
        Poisson  1.03 MiB
        vbar  0.33 MiB
    Wavefunctions  5.70 MiB
        Arrays psit_nG  3.96 MiB
        Eigensolver  0.53 MiB
        Projectors  0.73 MiB
        Overlap op  0.40 MiB
        Kinetic operator  0.09 MiB

Positions:
  0 Ag    0.0000    0.0000    0.0000

                
                
                
                
       Ag       
                
                
                

Unit Cell:
           Periodic     X           Y           Z      Points  Spacing
  --------------------------------------------------------------------
  1. axis:    yes    0.000000    2.028442    2.028442    12     0.2391
  2. axis:    yes    2.028442    0.000000    2.028442    12     0.2391
  3. axis:    yes    2.028442    2.028442    0.000000    12     0.2391

Ag-setup:
  name   : Silver
  id     : aac732a7f42225a52edcbbb6e277d3cd
  Z      : 47
  valence: 11
  core   : 36
  charge : 0.0
  file   : /usr/share/gpaw-setups/Ag.LDA.gz
  cutoffs: 1.30(comp), 2.31(filt), 2.78(core), lmax=2
  valence states:
            energy   radius
    5s(1)   -4.708   1.296
    5p(0)   -0.844   1.296
    4d(10)  -7.664   1.296
    *s      22.503   1.296
    *p      26.368   1.296
    *d      19.547   1.296

Using partial waves for Ag as LCAO basis

Using the LDA Exchange-Correlation Functional.
Spin-Paired Calculation
Total Charge:      0.000000
Fermi Temperature: 0.100000
Mode: Finite-difference
Eigensolver:       rmm-diis
                   (3 nearest neighbors central finite-difference stencil)
Poisson Solver:    Jacobi 
                   (3 nearest neighbors central finite-difference stencil)
Interpolation:     6th Order
Reference Energy:  -144464.583386

Total number of cores used: 1
Diagonalizer layout: Serial LAPACK
Orthonormalizer layout: Serial LAPACK

Symmetries present: 48
10 k-points in the Irreducible Part of the Brillouin Zone (total: 64)
Linear Mixing Parameter:           0.1
Pulay Mixing with 3 Old Densities
Damping of Long Wave Oscillations: 50

Convergence Criteria:
Total Energy Change per Atom:           0.001 eV / atom
Integral of Absolute Density Change:    0.0001 electrons
Integral of Absolute Eigenstate Change: 1e-09
Number of Bands in Calculation:         15
Bands to Converge:                      Occupied States Only
Number of Valence Electrons:            11
                     log10-error:    Total        Iterations:
           Time      WFS    Density  Energy       Fermi  Poisson
iter:   1  00:31:43  +2.3            -3.75653     12     11     
iter:   2  00:31:44  -2.1            -4.02072     3             
iter:   3  00:31:46  -2.7            -4.06988     3             
iter:   4  00:31:49  -2.4   -1.4     -3.92890     4      6      
iter:   5  00:31:51  -1.5   -1.5     -3.69810     7      7      
iter:   6  00:31:53  -2.9   -2.0     -3.75421     2      5      
iter:   7  00:31:55  -3.4   -2.4     -3.75610     4      5      
iter:   8  00:31:57  -4.3   -3.2     -3.75692     2      3      
iter:   9  00:31:59  -4.6   -3.2     -3.75718     2      3      
iter:  10  00:32:01  -4.7   -3.1     -3.75749     3      4      
iter:  11  00:32:04  -5.0   -3.2     -3.75743     3      4      
iter:  12  00:32:06  -5.4   -3.1     -3.75759     2      3      
iter:  13  00:32:08  -5.4   -3.2     -3.75766     2      3      
iter:  14  00:32:10  -5.5   -3.2     -3.75745     2      3      
iter:  15  00:32:12  -5.9   -3.3     -3.75749     2      3      
iter:  16  00:32:14  -6.2   -3.3     -3.75751     2      2      
iter:  17  00:32:16  -6.5   -3.4     -3.75748     2      3      
iter:  18  00:32:18  -6.7   -3.8     -3.75749     2      2      
iter:  19  00:32:20  -6.4   -3.7     -3.75768     2      3      
iter:  20  00:32:23  -7.1   -4.2     -3.75745     2      2      
iter:  21  00:32:25  -7.5   -4.4     -3.75726     2      1      
iter:  22  00:32:27  -7.8   -4.9     -3.75750     1      1      
iter:  23  00:32:29  -8.0   -5.0     -3.75768     2      1      
iter:  24  00:32:31  -8.3   -5.0     -3.75757     1      1      
iter:  25  00:32:33  -8.5   -5.1     -3.75757     1      1      
iter:  26  00:32:35  -8.6   -5.1     -3.75755     2      1      
iter:  27  00:32:37  -9.0   -5.0     -3.75768     2      1      
iter:  28  00:32:39  -8.5   -4.9     -3.75746     2      1      
iter:  29  00:32:41  -9.3   -5.1     -3.75756     1      1      
------------------------------------
Converged After 29 Iterations.

Energy Contributions Relative to Reference Atom:(reference = -144464.58339)
-------------------------
Kinetic:         -8.08612
Potential:       +6.96455
External:        +0.00000
XC:              -2.73491
Entropy (-ST):   -0.01957
Local:           +0.10871
-------------------------
Free Energy:     -3.76735
Zero Kelvin:     -3.75756

Fermi Level: 7.31568


Total Charge:  -0.000000 electrons
Dipole Moment: [-0.92545663 -0.92545663 -0.92545663]

Memory estimate
---------------
Calculator  333.08 MiB
    Initial overhead  320.03 MiB
    Density  5.28 MiB
        Arrays  0.34 MiB
        Localized functions  4.22 MiB
        Mixer  0.08 MiB
        Interpolator  0.64 MiB
    Hamiltonian  2.06 MiB
        Arrays  0.22 MiB
        Restrictor  0.37 MiB
        XC 3D grid  0.11 MiB
        Poisson  1.03 MiB
        vbar  0.33 MiB
    Wavefunctions  5.70 MiB
        Arrays psit_nG  3.96 MiB
        Eigensolver  0.53 MiB
        Projectors  0.73 MiB
        Overlap op  0.40 MiB
        Kinetic operator  0.09 MiB

Positions:
  0 Ag    0.0000    0.0000    0.0000

                
                
                
                
       Ag       
                
                
                

Unit Cell:
           Periodic     X           Y           Z      Points  Spacing
  --------------------------------------------------------------------
  1. axis:    yes    0.000000    2.028296    2.028296    12     0.2390
  2. axis:    yes    2.028296    0.000000    2.028296    12     0.2390
  3. axis:    yes    2.028296    2.028296    0.000000    12     0.2390

Ag-setup:
  name   : Silver
  id     : aac732a7f42225a52edcbbb6e277d3cd
  Z      : 47
  valence: 11
  core   : 36
  charge : 0.0
  file   : /usr/share/gpaw-setups/Ag.LDA.gz
  cutoffs: 1.30(comp), 2.31(filt), 2.78(core), lmax=2
  valence states:
            energy   radius
    5s(1)   -4.708   1.296
    5p(0)   -0.844   1.296
    4d(10)  -7.664   1.296
    *s      22.503   1.296
    *p      26.368   1.296
    *d      19.547   1.296

Using partial waves for Ag as LCAO basis

Using the LDA Exchange-Correlation Functional.
Spin-Paired Calculation
Total Charge:      0.000000
Fermi Temperature: 0.100000
Mode: Finite-difference
Eigensolver:       rmm-diis
                   (3 nearest neighbors central finite-difference stencil)
Poisson Solver:    Jacobi 
                   (3 nearest neighbors central finite-difference stencil)
Interpolation:     6th Order
Reference Energy:  -144464.583386

Total number of cores used: 1
Diagonalizer layout: Serial LAPACK
Orthonormalizer layout: Serial LAPACK

Symmetries present: 48
10 k-points in the Irreducible Part of the Brillouin Zone (total: 64)
Linear Mixing Parameter:           0.1
Pulay Mixing with 3 Old Densities
Damping of Long Wave Oscillations: 50

Convergence Criteria:
Total Energy Change per Atom:           0.001 eV / atom
Integral of Absolute Density Change:    0.0001 electrons
Integral of Absolute Eigenstate Change: 1e-09
Number of Bands in Calculation:         15
Bands to Converge:                      Occupied States Only
Number of Valence Electrons:            11
                     log10-error:    Total        Iterations:
           Time      WFS    Density  Energy       Fermi  Poisson
iter:   1  00:32:50  +2.3            -3.75645     12     11     
iter:   2  00:32:52  -2.1            -4.02077     3             
iter:   3  00:32:54  -2.7            -4.06995     3             
iter:   4  00:32:56  -2.4   -1.4     -3.92896     4      6      
iter:   5  00:32:58  -1.5   -1.5     -3.69810     7      7      
iter:   6  00:33:00  -2.9   -2.0     -3.75422     2      5      
iter:   7  00:33:03  -3.4   -2.4     -3.75611     4      5      
iter:   8  00:33:05  -4.3   -3.2     -3.75693     2      3      
iter:   9  00:33:07  -4.6   -3.2     -3.75718     2      3      
iter:  10  00:33:09  -4.7   -3.1     -3.75750     3      4      
iter:  11  00:33:11  -5.0   -3.2     -3.75744     3      4      
iter:  12  00:33:13  -5.4   -3.1     -3.75760     2      3      
iter:  13  00:33:15  -5.4   -3.1     -3.75767     2      3      
iter:  14  00:33:17  -5.5   -3.2     -3.75746     2      3      
iter:  15  00:33:19  -5.9   -3.3     -3.75750     2      3      
iter:  16  00:33:21  -6.2   -3.3     -3.75751     2      2      
iter:  17  00:33:23  -6.5   -3.4     -3.75749     2      3      
iter:  18  00:33:26  -6.7   -3.8     -3.75750     2      2      
iter:  19  00:33:28  -6.4   -3.7     -3.75768     2      3      
iter:  20  00:33:30  -7.1   -4.2     -3.75747     2      2      
iter:  21  00:33:32  -7.5   -4.4     -3.75725     2      1      
iter:  22  00:33:34  -7.8   -4.9     -3.75750     1      1      
iter:  23  00:33:36  -8.0   -5.1     -3.75761     1      1      
iter:  24  00:33:38  -8.3   -5.1     -3.75761     1      1      
iter:  25  00:33:40  -7.5   -5.1     -3.75751     2      2      
iter:  26  00:33:42  -7.6   -4.5     -3.75768     2      2      
iter:  27  00:33:44  -8.7   -5.0     -3.75754     2      1      
iter:  28  00:33:46  -9.1   -5.1     -3.75756     1      1      
------------------------------------
Converged After 28 Iterations.

Energy Contributions Relative to Reference Atom:(reference = -144464.58339)
-------------------------
Kinetic:         -8.08132
Potential:       +6.96140
External:        +0.00000
XC:              -2.73665
Entropy (-ST):   -0.01958
Local:           +0.10880
-------------------------
Free Energy:     -3.76735
Zero Kelvin:     -3.75756

Fermi Level: 7.31870


Total Charge:  -0.000000 electrons
Dipole Moment: [-0.92532389 -0.92532389 -0.92532389]

Memory estimate
---------------
Calculator  333.08 MiB
    Initial overhead  320.03 MiB
    Density  5.28 MiB
        Arrays  0.34 MiB
        Localized functions  4.22 MiB
        Mixer  0.08 MiB
        Interpolator  0.64 MiB
    Hamiltonian  2.06 MiB
        Arrays  0.22 MiB
        Restrictor  0.37 MiB
        XC 3D grid  0.11 MiB
        Poisson  1.03 MiB
        vbar  0.33 MiB
    Wavefunctions  5.70 MiB
        Arrays psit_nG  3.96 MiB
        Eigensolver  0.53 MiB
        Projectors  0.73 MiB
        Overlap op  0.40 MiB
        Kinetic operator  0.09 MiB

Positions:
  0 Ag    0.0000    0.0000    0.0000

                
                
                
                
       Ag       
                
                
                

Unit Cell:
           Periodic     X           Y           Z      Points  Spacing
  --------------------------------------------------------------------
  1. axis:    yes    0.000000    2.028406    2.028406    12     0.2390
  2. axis:    yes    2.028406    0.000000    2.028406    12     0.2390
  3. axis:    yes    2.028406    2.028406    0.000000    12     0.2390

Ag-setup:
  name   : Silver
  id     : aac732a7f42225a52edcbbb6e277d3cd
  Z      : 47
  valence: 11
  core   : 36
  charge : 0.0
  file   : /usr/share/gpaw-setups/Ag.LDA.gz
  cutoffs: 1.30(comp), 2.31(filt), 2.78(core), lmax=2
  valence states:
            energy   radius
    5s(1)   -4.708   1.296
    5p(0)   -0.844   1.296
    4d(10)  -7.664   1.296
    *s      22.503   1.296
    *p      26.368   1.296
    *d      19.547   1.296

Using partial waves for Ag as LCAO basis

Using the LDA Exchange-Correlation Functional.
Spin-Paired Calculation
Total Charge:      0.000000
Fermi Temperature: 0.100000
Mode: Finite-difference
Eigensolver:       rmm-diis
                   (3 nearest neighbors central finite-difference stencil)
Poisson Solver:    Jacobi 
                   (3 nearest neighbors central finite-difference stencil)
Interpolation:     6th Order
Reference Energy:  -144464.583386

Total number of cores used: 1
Diagonalizer layout: Serial LAPACK
Orthonormalizer layout: Serial LAPACK

Symmetries present: 48
10 k-points in the Irreducible Part of the Brillouin Zone (total: 64)
Linear Mixing Parameter:           0.1
Pulay Mixing with 3 Old Densities
Damping of Long Wave Oscillations: 50

Convergence Criteria:
Total Energy Change per Atom:           0.001 eV / atom
Integral of Absolute Density Change:    0.0001 electrons
Integral of Absolute Eigenstate Change: 1e-09
Number of Bands in Calculation:         15
Bands to Converge:                      Occupied States Only
Number of Valence Electrons:            11
                     log10-error:    Total        Iterations:
           Time      WFS    Density  Energy       Fermi  Poisson
iter:   1  00:33:55  +2.3            -3.75651     12     11     
iter:   2  00:33:57  -2.1            -4.02073     3             
iter:   3  00:33:59  -2.7            -4.06989     3             
iter:   4  00:34:01  -2.4   -1.4     -3.92892     4      6      
iter:   5  00:34:03  -1.5   -1.5     -3.69810     7      7      
iter:   6  00:34:05  -2.9   -2.0     -3.75421     2      5      
iter:   7  00:34:08  -3.4   -2.4     -3.75610     4      5      
iter:   8  00:34:10  -4.3   -3.2     -3.75693     2      3      
iter:   9  00:34:12  -4.6   -3.2     -3.75718     2      3      
iter:  10  00:34:14  -4.7   -3.1     -3.75749     3      4      
iter:  11  00:34:16  -5.0   -3.2     -3.75744     3      4      
iter:  12  00:34:18  -5.4   -3.1     -3.75759     2      3      
iter:  13  00:34:20  -5.4   -3.2     -3.75766     2      3      
iter:  14  00:34:22  -5.5   -3.2     -3.75745     2      3      
iter:  15  00:34:24  -5.9   -3.3     -3.75749     2      3      
iter:  16  00:34:26  -6.2   -3.3     -3.75751     2      2      
iter:  17  00:34:28  -6.5   -3.4     -3.75748     2      3      
iter:  18  00:34:31  -6.7   -3.8     -3.75749     2      2      
iter:  19  00:34:33  -6.4   -3.7     -3.75768     2      3      
iter:  20  00:34:35  -7.1   -4.2     -3.75745     2      2      
iter:  21  00:34:37  -7.5   -4.4     -3.75726     2      1      
iter:  22  00:34:39  -7.8   -4.9     -3.75750     1      1      
iter:  23  00:34:41  -8.0   -5.0     -3.75766     2      1      
iter:  24  00:34:43  -8.3   -5.0     -3.75758     1      1      
iter:  25  00:34:45  -8.5   -5.1     -3.75759     1      1      
iter:  26  00:34:47  -8.6   -5.1     -3.75744     1      1      
iter:  27  00:34:49  -9.1   -5.2     -3.75762     1      1      
------------------------------------
Converged After 27 Iterations.

Energy Contributions Relative to Reference Atom:(reference = -144464.58339)
-------------------------
Kinetic:         -8.08904
Potential:       +6.96729
External:        +0.00000
XC:              -2.73518
Entropy (-ST):   -0.01958
Local:           +0.10909
-------------------------
Free Energy:     -3.76741
Zero Kelvin:     -3.75762

Fermi Level: 7.31646


Total Charge:  -0.000000 electrons
Dipole Moment: [-0.92542397 -0.92542397 -0.92542397]
<?xml version="1.0" ?>
<test id="FCCLattice">
	<config>
		<potential>
			GPAW
		</potential>
		<element>
			Ag
		</element>
	</config>
	<results>
		<FCCLatticeConstant>
			4.05673828125
		</FCCLatticeConstant>
		<FCCEnergyPerAtom>
			-3.75768746238
		</FCCEnergyPerAtom>
	</results>
</test>

Memory usage: 320.03 MB

============================================================
Timing:                               incl.     excl.
============================================================
Initialization:                     229.651    46.634   2.1% ||
 Hamiltonian:                         6.996     0.004   0.0% |
  Atomic:                             3.132     0.162   0.0% |
   XC Correction:                     2.970     2.970   0.1% |
  Communicate energies:               0.000     0.000   0.0% |
  Hartree integrate/restrict:         0.035     0.035   0.0% |
  Initialize Hamiltonian:             0.100     0.100   0.0% |
  Poisson:                            3.331     3.331   0.2% |
  XC 3D grid:                         0.380     0.380   0.0% |
  vbar:                               0.014     0.014   0.0% |
 LCAO initialization:               176.021     7.146   0.3% |
  LCAO eigensolver:                 125.112     0.046   0.0% |
   Atomic Hamiltonian:                0.044     0.044   0.0% |
   Calculate projections:             0.011     0.011   0.0% |
   Distribute overlap matrix:         0.006     0.006   0.0% |
   Orbital Layouts:                   0.091     0.091   0.0% |
   Potential matrix:                124.913   124.913   5.7% |-|
  LCAO to grid:                      26.947    26.947   1.2% |
  Set positions (LCAO WFS):          16.816     0.006   0.0% |
   Basic WFS set positions:           0.061     0.061   0.0% |
   Basis functions set positions:     0.002     0.002   0.0% |
   TCI: Calculate S, T, P:           16.747    16.747   0.8% |
SCF-cycle:                         1974.086     5.038   0.2% |
 Density:                            28.710     0.038   0.0% |
  Atomic density matrices:            5.850     5.850   0.3% |
  Mix:                                6.709     6.709   0.3% |
  Multipole moments:                  0.062     0.062   0.0% |
  Pseudo density:                    16.051     6.792   0.3% |
   Symmetrize density:                9.259     9.259   0.4% |
 Hamiltonian:                       115.420     0.105   0.0% |
  Atomic:                            82.459     4.372   0.2% |
   XC Correction:                    78.087    78.087   3.5% ||
  Communicate energies:               0.012     0.012   0.0% |
  Hartree integrate/restrict:         0.923     0.923   0.0% |
  Poisson:                           21.904    21.904   1.0% |
  XC 3D grid:                         9.618     9.618   0.4% |
  vbar:                               0.399     0.399   0.0% |
 Orthonormalize:                    369.410   335.033  15.2% |-----|
  Band Layouts:                       1.244     0.192   0.0% |
   Distribute results:                0.078     0.078   0.0% |
   Inverse Cholesky:                  0.974     0.974   0.0% |
  calc_matrix:                       18.354    18.354   0.8% |
  rotate_psi:                        14.780    14.780   0.7% |
 RMM-DIIS:                         1344.619  1116.375  50.7% |-------------------|
  precondition:                     228.244   228.244  10.4% |---|
 Subspace diag:                     110.889     1.177   0.1% |
  Band Layouts:                       3.306     0.309   0.0% |
   Diagonalize:                       2.815     2.815   0.1% |
   Distribute results:                0.181     0.181   0.0% |
  calc_matrix:                       79.277    79.277   3.6% ||
  rotate_psi:                        27.128    27.128   1.2% |
Other:                                0.147     0.147   0.0% |
============================================================
Total:                                       2203.884 100.0%
============================================================
date: Thu Feb  3 00:34:49 2011
