
  ___ ___ ___ _ _ _  
 |   |   |_  | | | | 
 | | | | | . | | | | 
 |__ |  _|___|_____|  0.7.2.6974
 |___|_|             

User: alemi@Cerebellum
Date: Wed Feb  2 22:40:47 2011
Arch: i686
Pid:  3928
Dir:  /usr/lib/python2.6/dist-packages/gpaw
ase:   /home/alemi/ase/ase  version:  3.5.0.1614
numpy: /usr/lib/python2.6/dist-packages/numpy
units: Angstrom and eV

Memory estimate
---------------
Calculator  131.33 MiB
    Initial overhead  123.70 MiB
    Density  4.54 MiB
        Arrays  0.10 MiB
        Localized functions  4.13 MiB
        Mixer  0.02 MiB
        Interpolator  0.28 MiB
    Hamiltonian  0.91 MiB
        Arrays  0.07 MiB
        Restrictor  0.16 MiB
        XC 3D grid  0.03 MiB
        Poisson  0.35 MiB
        vbar  0.31 MiB
    Wavefunctions  2.18 MiB
        Arrays psit_nG  1.17 MiB
        Eigensolver  0.16 MiB
        Projectors  0.69 MiB
        Overlap op  0.12 MiB
        Kinetic operator  0.04 MiB

Positions:
  0 Pt    0.0000    0.0000    0.0000

                
                
                
                
       Pt       
                
                
                

Unit Cell:
           Periodic     X           Y           Z      Points  Spacing
  --------------------------------------------------------------------
  1. axis:    yes    0.000000    1.500000    1.500000     8     0.2652
  2. axis:    yes    1.500000    0.000000    1.500000     8     0.2652
  3. axis:    yes    1.500000    1.500000    0.000000     8     0.2652

Pt-setup:
  name   : Platinum
  id     : b5c9217a4fb7fe6dfe11761931a73f7e
  Z      : 78
  valence: 10
  core   : 68
  charge : 0.0
  file   : /usr/share/gpaw-setups/Pt.LDA.gz
  cutoffs: 1.22(comp), 2.51(filt), 2.91(core), lmax=2
  valence states:
            energy   radius
    6s(1)   -5.930   1.323
    6p(0)   -0.962   1.429
    5d(9)   -6.387   1.217
    *s      21.281   1.323
    *p      26.249   1.429
    *d      20.825   1.217

Using partial waves for Pt as LCAO basis

Using the LDA Exchange-Correlation Functional.
Spin-Paired Calculation
Total Charge:      0.000000
Fermi Temperature: 0.100000
Mode: Finite-difference
Eigensolver:       rmm-diis
                   (3 nearest neighbors central finite-difference stencil)
Poisson Solver:    Jacobi 
                   (3 nearest neighbors central finite-difference stencil)
Interpolation:     6th Order
Reference Energy:  -500096.925876

Total number of cores used: 1
Diagonalizer layout: Serial LAPACK
Orthonormalizer layout: Serial LAPACK

Symmetries present: 48
10 k-points in the Irreducible Part of the Brillouin Zone (total: 64)
Linear Mixing Parameter:           0.1
Pulay Mixing with 3 Old Densities
Damping of Long Wave Oscillations: 50

Convergence Criteria:
Total Energy Change per Atom:           0.001 eV / atom
Integral of Absolute Density Change:    0.0001 electrons
Integral of Absolute Eigenstate Change: 1e-09
Number of Bands in Calculation:         15
Bands to Converge:                      Occupied States Only
Number of Valence Electrons:            10
                     log10-error:    Total        Iterations:
           Time      WFS    Density  Energy       Fermi  Poisson
iter:   1  22:41:05  +2.2             13.50351    14     13     
iter:   2  22:41:09  -1.4             12.21771    6             
iter:   3  22:41:12  -2.0             12.01533    4             
iter:   4  22:41:16  -2.5   -1.4      12.56198    4      6      
iter:   5  22:41:19  -2.0   -1.5      14.63281    11     8      
iter:   6  22:41:22  -2.4   -2.0      14.59024    3      5      
iter:   7  22:41:25  -2.7   -1.9      14.55747    2      6      
iter:   8  22:41:28  -3.2   -1.8      14.51533    4      6      
iter:   9  22:41:31  -1.9   -1.8      14.15777    8      8      
iter:  10  22:41:34  -2.9   -1.8      14.49583    5      8      
iter:  11  22:41:37  -3.2   -1.7      14.47053    4      8      
iter:  12  22:41:39  -2.8   -1.9      14.42662    3      8      
iter:  13  22:41:42  -3.1   -2.5      14.41923    3      5      
iter:  14  22:41:46  -3.2   -2.5      14.43976    3      7      
iter:  15  22:41:49  -3.5   -2.3      14.43665    2      5      
iter:  16  22:41:52  -3.9   -2.4      14.44650    3      6      
iter:  17  22:41:55  -4.1   -2.6      14.45119    3      6      
iter:  18  22:41:58  -4.4   -2.9      14.45173    3      6      
iter:  19  22:42:00  -4.9   -3.1      14.45115    2      5      
iter:  20  22:42:03  -5.1   -3.3      14.45125    2      4      
iter:  21  22:42:06  -5.4   -3.5      14.45150    2      3      
iter:  22  22:42:09  -5.5   -3.6      14.45156    2      2      
iter:  23  22:42:11  -5.5   -3.6      14.45161    2      3      
iter:  24  22:42:14  -5.4   -3.7      14.45170    2      4      
iter:  25  22:42:17  -5.6   -3.9      14.45165    2      3      
iter:  26  22:42:20  -5.6   -4.1      14.45155    2      3      
iter:  27  22:42:23  -5.8   -4.6      14.45149    1      1      
iter:  28  22:42:27  -6.1   -4.2      14.45169    1      1      
iter:  29  22:42:30  -6.4   -4.0      14.45183    1      1      
iter:  30  22:42:33  -6.5   -3.9      14.45152    2      2      
iter:  31  22:42:36  -6.7   -3.9      14.45154    2      2      
iter:  32  22:42:39  -6.8   -3.9      14.45197    2      2      
iter:  33  22:42:42  -7.1   -3.7      14.45138    2      2      
iter:  34  22:42:45  -6.8   -3.9      14.45146    2      3      
iter:  35  22:42:48  -7.2   -4.0      14.45156    2      3      
iter:  36  22:42:51  -7.7   -4.1      14.45159    2      2      
iter:  37  22:42:56  -6.9   -4.1      14.45181    2      3      
iter:  38  22:43:00  -7.5   -4.3      14.45137    2      1      
iter:  39  22:43:04  -8.1   -4.4      14.45149    2      1      
iter:  40  22:43:08  -7.3   -4.4      14.45162    2      2      
iter:  41  22:43:11  -7.9   -4.7      14.45154    2      1      
iter:  42  22:43:14  -8.3   -4.7      14.45185    2      2      
iter:  43  22:43:17  -8.2   -4.4      14.45156    2      3      
iter:  44  22:43:20  -8.6   -4.6      14.45182    2      2      
iter:  45  22:43:24  -8.5   -5.0      14.45151    2      1      
iter:  46  22:43:27  -8.5   -5.1      14.45158    2      1      
iter:  47  22:43:30  -8.5   -5.2      14.45164    2      1      
iter:  48  22:43:33  -8.8   -5.2      14.45174    1      1      
iter:  49  22:43:36  -9.0   -5.3      14.45165    1      1      
------------------------------------
Converged After 49 Iterations.

Energy Contributions Relative to Reference Atom:(reference = -500096.92588)
-------------------------
Kinetic:       +421.95486
Potential:     -367.29705
External:        +0.00000
XC:             -41.37233
Entropy (-ST):   -0.03843
Local:           +1.18539
-------------------------
Free Energy:    +14.43244
Zero Kelvin:    +14.45165

Fermi Level: 38.98370


Total Charge:  -0.000000 electrons
Dipole Moment: [-1.0610693 -1.0610693 -1.0610693]

Memory estimate
---------------
Calculator  166.71 MiB
    Initial overhead  159.78 MiB
    Density  3.98 MiB
        Arrays  0.10 MiB
        Localized functions  3.57 MiB
        Mixer  0.02 MiB
        Interpolator  0.28 MiB
    Hamiltonian  0.87 MiB
        Arrays  0.07 MiB
        Restrictor  0.16 MiB
        XC 3D grid  0.03 MiB
        Poisson  0.35 MiB
        vbar  0.26 MiB
    Wavefunctions  2.09 MiB
        Arrays psit_nG  1.17 MiB
        Eigensolver  0.16 MiB
        Projectors  0.60 MiB
        Overlap op  0.12 MiB
        Kinetic operator  0.04 MiB

Positions:
  0 Pt    0.0000    0.0000    0.0000

                
                
                
                
       Pt       
                
                
                

Unit Cell:
           Periodic     X           Y           Z      Points  Spacing
  --------------------------------------------------------------------
  1. axis:    yes    0.000000    1.575000    1.575000     8     0.2784
  2. axis:    yes    1.575000    0.000000    1.575000     8     0.2784
  3. axis:    yes    1.575000    1.575000    0.000000     8     0.2784

Pt-setup:
  name   : Platinum
  id     : b5c9217a4fb7fe6dfe11761931a73f7e
  Z      : 78
  valence: 10
  core   : 68
  charge : 0.0
  file   : /usr/share/gpaw-setups/Pt.LDA.gz
  cutoffs: 1.22(comp), 2.51(filt), 2.91(core), lmax=2
  valence states:
            energy   radius
    6s(1)   -5.930   1.323
    6p(0)   -0.962   1.429
    5d(9)   -6.387   1.217
    *s      21.281   1.323
    *p      26.249   1.429
    *d      20.825   1.217

Using partial waves for Pt as LCAO basis

Using the LDA Exchange-Correlation Functional.
Spin-Paired Calculation
Total Charge:      0.000000
Fermi Temperature: 0.100000
Mode: Finite-difference
Eigensolver:       rmm-diis
                   (3 nearest neighbors central finite-difference stencil)
Poisson Solver:    Jacobi 
                   (3 nearest neighbors central finite-difference stencil)
Interpolation:     6th Order
Reference Energy:  -500096.925876

Total number of cores used: 1
Diagonalizer layout: Serial LAPACK
Orthonormalizer layout: Serial LAPACK

Symmetries present: 48
10 k-points in the Irreducible Part of the Brillouin Zone (total: 64)
Linear Mixing Parameter:           0.1
Pulay Mixing with 3 Old Densities
Damping of Long Wave Oscillations: 50

Convergence Criteria:
Total Energy Change per Atom:           0.001 eV / atom
Integral of Absolute Density Change:    0.0001 electrons
Integral of Absolute Eigenstate Change: 1e-09
Number of Bands in Calculation:         15
Bands to Converge:                      Occupied States Only
Number of Valence Electrons:            10
                     log10-error:    Total        Iterations:
           Time      WFS    Density  Energy       Fermi  Poisson
iter:   1  22:43:50  +2.1             4.62355     13     13     
iter:   2  22:43:53  -1.7             3.69673     5             
iter:   3  22:43:56  -2.3             3.55320     3             
iter:   4  22:43:58  -2.8   -1.4      3.83948     4      7      
iter:   5  22:44:02  -2.4   -1.5      4.95189     6      9      
iter:   6  22:44:05  -2.9   -2.3      4.92596     2      4      
iter:   7  22:44:08  -3.2   -2.2      4.91824     3      5      
iter:   8  22:44:11  -3.4   -2.1      4.91002     2      4      
iter:   9  22:44:14  -3.2   -2.0      4.92688     4      5      
iter:  10  22:44:16  -3.7   -2.0      4.91085     4      5      
iter:  11  22:44:19  -4.0   -2.0      4.82814     4      7      
iter:  12  22:44:21  -2.4   -2.0      4.78231     8      7      
iter:  13  22:44:24  -2.5   -1.9      4.65770     10     7      
iter:  14  22:44:26  -3.3   -1.9      4.74210     3      7      
iter:  15  22:44:29  -3.8   -2.0      4.76872     4      7      
iter:  16  22:44:31  -2.7   -2.0      4.87146     7      6      
iter:  17  22:44:33  -2.5   -2.1      4.67972     4      8      
iter:  18  22:44:36  -2.9   -2.2      4.66132     3      6      
iter:  19  22:44:38  -2.9   -2.2      4.72970     4      8      
iter:  20  22:44:41  -3.3   -2.0      4.73273     2      7      
iter:  21  22:44:43  -3.4   -2.2      4.84038     4      6      
iter:  22  22:44:46  -3.9   -2.4      4.86271     3      6      
iter:  23  22:44:49  -4.2   -2.7      4.86995     3      5      
iter:  24  22:44:52  -4.3   -2.9      4.88079     3      5      
iter:  25  22:44:55  -4.5   -3.0      4.88423     3      4      
iter:  26  22:44:59  -4.6   -3.1      4.88770     3      4      
iter:  27  22:45:02  -4.3   -3.1      4.89315     3      5      
iter:  28  22:45:05  -4.5   -3.4      4.89349     3      3      
iter:  29  22:45:07  -4.4   -3.3      4.89436     3      4      
iter:  30  22:45:10  -4.5   -3.5      4.89416     3      4      
iter:  31  22:45:12  -4.8   -3.5      4.89409     2      3      
iter:  32  22:45:15  -4.9   -3.2      4.89366     2      4      
iter:  33  22:45:18  -4.9   -3.3      4.89341     2      5      
iter:  34  22:45:20  -5.2   -4.0      4.89316     2      2      
iter:  35  22:45:22  -5.4   -4.0      4.89319     2      3      
iter:  36  22:45:25  -5.6   -4.0      4.89345     2      2      
iter:  37  22:45:28  -5.8   -3.8      4.89304     2      1      
iter:  38  22:45:30  -6.1   -3.7      4.89344     2      2      
iter:  39  22:45:34  -6.3   -3.7      4.89365     2      1      
iter:  40  22:45:36  -6.5   -3.6      4.89324     2      3      
iter:  41  22:45:39  -6.6   -3.8      4.89333     3      4      
iter:  42  22:45:43  -7.1   -4.0      4.89358     2      2      
iter:  43  22:45:46  -7.3   -4.2      4.89354     2      3      
iter:  44  22:45:49  -7.3   -4.4      4.89356     2      2      
iter:  45  22:45:51  -7.2   -4.6      4.89384     2      1      
iter:  46  22:45:53  -7.6   -4.7      4.89361     2      1      
iter:  47  22:45:56  -7.8   -4.7      4.89338     2      1      
iter:  48  22:45:59  -7.8   -4.6      4.89359     2      3      
iter:  49  22:46:03  -7.7   -4.2      4.89319     2      2      
iter:  50  22:46:06  -7.6   -5.0      4.89354     2      1      
iter:  51  22:46:09  -7.8   -5.3      4.89357     2      1      
iter:  52  22:46:12  -8.4   -5.3      4.89346     2      1      
iter:  53  22:46:15  -8.6   -5.4      4.89344     2      1      
iter:  54  22:46:18  -9.0   -5.1      4.89353     2      1      
iter:  55  22:46:20  -9.1   -5.3      4.89356     2      1      
------------------------------------
Converged After 55 Iterations.

Energy Contributions Relative to Reference Atom:(reference = -500096.92588)
-------------------------
Kinetic:       +282.31801
Potential:     -247.02774
External:        +0.00000
XC:             -31.19190
Entropy (-ST):   -0.03530
Local:           +0.81284
-------------------------
Free Energy:     +4.87591
Zero Kelvin:     +4.89356

Fermi Level: 32.50056


Total Charge:  -0.000000 electrons
Dipole Moment: [-1.19594939 -1.19594939 -1.19594939]

Memory estimate
---------------
Calculator  178.89 MiB
    Initial overhead  172.53 MiB
    Density  3.51 MiB
        Arrays  0.10 MiB
        Localized functions  3.10 MiB
        Mixer  0.02 MiB
        Interpolator  0.28 MiB
    Hamiltonian  0.83 MiB
        Arrays  0.07 MiB
        Restrictor  0.16 MiB
        XC 3D grid  0.03 MiB
        Poisson  0.35 MiB
        vbar  0.23 MiB
    Wavefunctions  2.01 MiB
        Arrays psit_nG  1.17 MiB
        Eigensolver  0.16 MiB
        Projectors  0.52 MiB
        Overlap op  0.12 MiB
        Kinetic operator  0.04 MiB

Positions:
  0 Pt    0.0000    0.0000    0.0000

                
                
                
                
       Pt       
                
                
                

Unit Cell:
           Periodic     X           Y           Z      Points  Spacing
  --------------------------------------------------------------------
  1. axis:    yes    0.000000    1.650000    1.650000     8     0.2917
  2. axis:    yes    1.650000    0.000000    1.650000     8     0.2917
  3. axis:    yes    1.650000    1.650000    0.000000     8     0.2917

Pt-setup:
  name   : Platinum
  id     : b5c9217a4fb7fe6dfe11761931a73f7e
  Z      : 78
  valence: 10
  core   : 68
  charge : 0.0
  file   : /usr/share/gpaw-setups/Pt.LDA.gz
  cutoffs: 1.22(comp), 2.51(filt), 2.91(core), lmax=2
  valence states:
            energy   radius
    6s(1)   -5.930   1.323
    6p(0)   -0.962   1.429
    5d(9)   -6.387   1.217
    *s      21.281   1.323
    *p      26.249   1.429
    *d      20.825   1.217

Using partial waves for Pt as LCAO basis

Using the LDA Exchange-Correlation Functional.
Spin-Paired Calculation
Total Charge:      0.000000
Fermi Temperature: 0.100000
Mode: Finite-difference
Eigensolver:       rmm-diis
                   (3 nearest neighbors central finite-difference stencil)
Poisson Solver:    Jacobi 
                   (3 nearest neighbors central finite-difference stencil)
Interpolation:     6th Order
Reference Energy:  -500096.925876

Total number of cores used: 1
Diagonalizer layout: Serial LAPACK
Orthonormalizer layout: Serial LAPACK

Symmetries present: 48
10 k-points in the Irreducible Part of the Brillouin Zone (total: 64)
Linear Mixing Parameter:           0.1
Pulay Mixing with 3 Old Densities
Damping of Long Wave Oscillations: 50

Convergence Criteria:
Total Energy Change per Atom:           0.001 eV / atom
Integral of Absolute Density Change:    0.0001 electrons
Integral of Absolute Eigenstate Change: 1e-09
Number of Bands in Calculation:         15
Bands to Converge:                      Occupied States Only
Number of Valence Electrons:            10
                     log10-error:    Total        Iterations:
           Time      WFS    Density  Energy       Fermi  Poisson
iter:   1  22:46:34  +1.9            -1.09809     11     13     
iter:   2  22:46:36  -1.9            -1.81430     4             
iter:   3  22:46:39  -2.5            -1.91883     3             
iter:   4  22:46:41  -3.0   -1.4     -1.74865     3      7      
iter:   5  22:46:43  -2.4   -1.5     -1.09981     4      9      
iter:   6  22:46:46  -3.3   -2.4     -1.12365     3      6      
iter:   7  22:46:49  -3.7   -2.3     -1.14466     3      4      
iter:   8  22:46:51  -3.4   -2.2     -1.10005     4      6      
iter:   9  22:46:53  -3.6   -2.5     -1.10415     3      4      
iter:  10  22:46:55  -3.9   -2.4     -1.10748     3      5      
iter:  11  22:46:57  -4.1   -2.3     -1.10927     3      6      
iter:  12  22:47:00  -3.8   -2.4     -1.11526     3      6      
iter:  13  22:47:02  -3.5   -2.4     -1.14364     4      7      
iter:  14  22:47:04  -4.0   -2.6     -1.11781     4      6      
iter:  15  22:47:07  -4.3   -2.7     -1.12275     3      6      
iter:  16  22:47:09  -4.4   -2.9     -1.11544     4      6      
iter:  17  22:47:11  -5.0   -2.8     -1.11593     2      5      
iter:  18  22:47:14  -5.2   -3.0     -1.11578     3      3      
iter:  19  22:47:16  -5.1   -3.1     -1.11693     3      4      
iter:  20  22:47:18  -5.6   -3.2     -1.11703     2      4      
iter:  21  22:47:20  -6.2   -3.3     -1.11649     3      4      
iter:  22  22:47:22  -6.3   -3.3     -1.11641     2      3      
iter:  23  22:47:25  -6.5   -3.4     -1.11683     2      3      
iter:  24  22:47:27  -6.8   -3.4     -1.11650     2      2      
iter:  25  22:47:29  -7.1   -3.4     -1.11631     2      3      
iter:  26  22:47:31  -5.9   -3.5     -1.11565     3      3      
iter:  27  22:47:33  -6.4   -3.7     -1.11599     2      2      
iter:  28  22:47:35  -6.5   -3.7     -1.11584     2      2      
iter:  29  22:47:38  -6.4   -3.8     -1.11570     2      2      
iter:  30  22:47:41  -6.2   -3.8     -1.11565     2      3      
iter:  31  22:47:45  -6.4   -4.0     -1.11573     2      2      
iter:  32  22:47:48  -6.3   -4.1     -1.11568     2      3      
iter:  33  22:47:50  -6.6   -4.3     -1.11588     2      1      
iter:  34  22:47:52  -6.7   -4.4     -1.11572     2      1      
iter:  35  22:47:55  -6.9   -4.4     -1.11562     2      2      
iter:  36  22:47:58  -7.2   -4.4     -1.11580     2      2      
iter:  37  22:48:00  -7.3   -4.2     -1.11556     2      2      
iter:  38  22:48:02  -7.4   -4.3     -1.11558     1      2      
iter:  39  22:48:05  -7.5   -4.4     -1.11540     2      2      
iter:  40  22:48:07  -7.9   -4.4     -1.11597     2      2      
iter:  41  22:48:09  -7.9   -4.4     -1.11543     2      2      
iter:  42  22:48:11  -8.5   -4.7     -1.11584     2      1      
iter:  43  22:48:13  -8.6   -5.1     -1.11567     2      1      
iter:  44  22:48:15  -9.1   -5.2     -1.11569     2      1      
------------------------------------
Converged After 44 Iterations.

Energy Contributions Relative to Reference Atom:(reference = -500096.92588)
-------------------------
Kinetic:       +180.25704
Potential:     -158.81641
External:        +0.00000
XC:             -23.19687
Entropy (-ST):   -0.03762
Local:           +0.65936
-------------------------
Free Energy:     -1.13450
Zero Kelvin:     -1.11569

Fermi Level: 27.09445


Total Charge:  0.000000 electrons
Dipole Moment: [-1.33258269 -1.33258269 -1.33258269]

Memory estimate
---------------
Calculator  184.22 MiB
    Initial overhead  178.34 MiB
    Density  3.13 MiB
        Arrays  0.10 MiB
        Localized functions  2.72 MiB
        Mixer  0.02 MiB
        Interpolator  0.28 MiB
    Hamiltonian  0.80 MiB
        Arrays  0.07 MiB
        Restrictor  0.16 MiB
        XC 3D grid  0.03 MiB
        Poisson  0.35 MiB
        vbar  0.20 MiB
    Wavefunctions  1.94 MiB
        Arrays psit_nG  1.17 MiB
        Eigensolver  0.16 MiB
        Projectors  0.45 MiB
        Overlap op  0.12 MiB
        Kinetic operator  0.04 MiB

Positions:
  0 Pt    0.0000    0.0000    0.0000

                
                
                
                
       Pt       
                
                
                

Unit Cell:
           Periodic     X           Y           Z      Points  Spacing
  --------------------------------------------------------------------
  1. axis:    yes    0.000000    1.725000    1.725000     8     0.3049
  2. axis:    yes    1.725000    0.000000    1.725000     8     0.3049
  3. axis:    yes    1.725000    1.725000    0.000000     8     0.3049

Pt-setup:
  name   : Platinum
  id     : b5c9217a4fb7fe6dfe11761931a73f7e
  Z      : 78
  valence: 10
  core   : 68
  charge : 0.0
  file   : /usr/share/gpaw-setups/Pt.LDA.gz
  cutoffs: 1.22(comp), 2.51(filt), 2.91(core), lmax=2
  valence states:
            energy   radius
    6s(1)   -5.930   1.323
    6p(0)   -0.962   1.429
    5d(9)   -6.387   1.217
    *s      21.281   1.323
    *p      26.249   1.429
    *d      20.825   1.217

Using partial waves for Pt as LCAO basis

Using the LDA Exchange-Correlation Functional.
Spin-Paired Calculation
Total Charge:      0.000000
Fermi Temperature: 0.100000
Mode: Finite-difference
Eigensolver:       rmm-diis
                   (3 nearest neighbors central finite-difference stencil)
Poisson Solver:    Jacobi 
                   (3 nearest neighbors central finite-difference stencil)
Interpolation:     6th Order
Reference Energy:  -500096.925876

Total number of cores used: 1
Diagonalizer layout: Serial LAPACK
Orthonormalizer layout: Serial LAPACK

Symmetries present: 48
10 k-points in the Irreducible Part of the Brillouin Zone (total: 64)
Linear Mixing Parameter:           0.1
Pulay Mixing with 3 Old Densities
Damping of Long Wave Oscillations: 50

Convergence Criteria:
Total Energy Change per Atom:           0.001 eV / atom
Integral of Absolute Density Change:    0.0001 electrons
Integral of Absolute Eigenstate Change: 1e-09
Number of Bands in Calculation:         15
Bands to Converge:                      Occupied States Only
Number of Valence Electrons:            10
                     log10-error:    Total        Iterations:
           Time      WFS    Density  Energy       Fermi  Poisson
iter:   1  22:48:26  +1.8            -4.65080     10     13     
iter:   2  22:48:28  -2.1            -5.25557     4             
iter:   3  22:48:30  -2.7            -5.34101     3             
iter:   4  22:48:32  -3.2   -1.3     -5.20941     4      7      
iter:   5  22:48:34  -2.2   -1.4     -4.76616     7      9      
iter:   6  22:48:36  -3.6   -2.4     -4.78756     4      6      
iter:   7  22:48:39  -3.9   -2.3     -4.80440     3      6      
iter:   8  22:48:40  -3.8   -2.3     -4.76644     4      6      
iter:   9  22:48:42  -3.6   -2.5     -4.77070     4      6      
iter:  10  22:48:44  -4.0   -2.6     -4.77290     3      6      
iter:  11  22:48:45  -4.2   -2.5     -4.77040     3      6      
iter:  12  22:48:48  -4.2   -2.5     -4.77926     3      5      
iter:  13  22:48:50  -4.4   -2.5     -4.77866     2      6      
iter:  14  22:48:52  -4.6   -2.6     -4.77739     3      5      
iter:  15  22:48:54  -4.3   -2.7     -4.77224     3      5      
iter:  16  22:48:57  -5.1   -2.9     -4.77359     3      5      
iter:  17  22:48:59  -5.3   -3.1     -4.77277     3      4      
iter:  18  22:49:01  -5.4   -3.3     -4.77191     3      5      
iter:  19  22:49:02  -5.8   -3.2     -4.77199     2      5      
iter:  20  22:49:04  -6.2   -3.9     -4.77172     2      3      
iter:  21  22:49:06  -6.6   -4.1     -4.77192     2      2      
iter:  22  22:49:08  -6.8   -4.3     -4.77194     1      2      
iter:  23  22:49:10  -7.1   -4.3     -4.77190     2      1      
iter:  24  22:49:12  -7.2   -4.4     -4.77184     2      1      
iter:  25  22:49:14  -7.6   -4.5     -4.77200     2      1      
iter:  26  22:49:16  -7.8   -4.6     -4.77212     2      1      
iter:  27  22:49:18  -7.8   -4.7     -4.77212     2      2      
iter:  28  22:49:21  -8.2   -5.0     -4.77193     2      1      
iter:  29  22:49:23  -8.4   -5.1     -4.77203     2      1      
iter:  30  22:49:25  -8.5   -5.2     -4.77207     2      1      
iter:  31  22:49:27  -8.7   -5.3     -4.77194     2      1      
iter:  32  22:49:29  -8.8   -5.3     -4.77204     2      1      
iter:  33  22:49:31  -9.0   -5.2     -4.77177     2      1      
------------------------------------
Converged After 33 Iterations.

Energy Contributions Relative to Reference Atom:(reference = -500096.92588)
-------------------------
Kinetic:       +107.58365
Potential:      -95.92047
External:        +0.00000
XC:             -17.00639
Entropy (-ST):   -0.04255
Local:           +0.59272
-------------------------
Free Energy:     -4.79304
Zero Kelvin:     -4.77177

Fermi Level: 22.56520


Total Charge:  0.000000 electrons
Dipole Moment: [-1.47134331 -1.47134331 -1.47134331]

Memory estimate
---------------
Calculator  197.28 MiB
    Initial overhead  180.66 MiB
    Density  8.20 MiB
        Arrays  0.34 MiB
        Localized functions  7.14 MiB
        Mixer  0.08 MiB
        Interpolator  0.64 MiB
    Hamiltonian  2.26 MiB
        Arrays  0.22 MiB
        Restrictor  0.37 MiB
        XC 3D grid  0.11 MiB
        Poisson  1.03 MiB
        vbar  0.53 MiB
    Wavefunctions  6.16 MiB
        Arrays psit_nG  3.96 MiB
        Eigensolver  0.53 MiB
        Projectors  1.19 MiB
        Overlap op  0.40 MiB
        Kinetic operator  0.09 MiB

Positions:
  0 Pt    0.0000    0.0000    0.0000

                
                
                
                
       Pt       
                
                
                

Unit Cell:
           Periodic     X           Y           Z      Points  Spacing
  --------------------------------------------------------------------
  1. axis:    yes    0.000000    1.875000    1.875000    12     0.2210
  2. axis:    yes    1.875000    0.000000    1.875000    12     0.2210
  3. axis:    yes    1.875000    1.875000    0.000000    12     0.2210

Pt-setup:
  name   : Platinum
  id     : b5c9217a4fb7fe6dfe11761931a73f7e
  Z      : 78
  valence: 10
  core   : 68
  charge : 0.0
  file   : /usr/share/gpaw-setups/Pt.LDA.gz
  cutoffs: 1.22(comp), 2.51(filt), 2.91(core), lmax=2
  valence states:
            energy   radius
    6s(1)   -5.930   1.323
    6p(0)   -0.962   1.429
    5d(9)   -6.387   1.217
    *s      21.281   1.323
    *p      26.249   1.429
    *d      20.825   1.217

Using partial waves for Pt as LCAO basis

Using the LDA Exchange-Correlation Functional.
Spin-Paired Calculation
Total Charge:      0.000000
Fermi Temperature: 0.100000
Mode: Finite-difference
Eigensolver:       rmm-diis
                   (3 nearest neighbors central finite-difference stencil)
Poisson Solver:    Jacobi 
                   (3 nearest neighbors central finite-difference stencil)
Interpolation:     6th Order
Reference Energy:  -500096.925876

Total number of cores used: 1
Diagonalizer layout: Serial LAPACK
Orthonormalizer layout: Serial LAPACK

Symmetries present: 48
10 k-points in the Irreducible Part of the Brillouin Zone (total: 64)
Linear Mixing Parameter:           0.1
Pulay Mixing with 3 Old Densities
Damping of Long Wave Oscillations: 50

Convergence Criteria:
Total Energy Change per Atom:           0.001 eV / atom
Integral of Absolute Density Change:    0.0001 electrons
Integral of Absolute Eigenstate Change: 1e-09
Number of Bands in Calculation:         15
Bands to Converge:                      Occupied States Only
Number of Valence Electrons:            10
                     log10-error:    Total        Iterations:
           Time      WFS    Density  Energy       Fermi  Poisson
iter:   1  22:49:48  +2.5            -7.10608     7      11     
iter:   2  22:49:52  -1.7            -7.66875     3             
iter:   3  22:49:57  -2.5            -7.73830     2             
iter:   4  22:50:01  -2.7   -1.2     -7.58532     4      6      
iter:   5  22:50:05  -1.6   -1.3     -7.22716     11     8      
iter:   6  22:50:09  -3.1   -2.2     -7.25685     4      6      
iter:   7  22:50:13  -3.7   -2.1     -7.24695     3      6      
iter:   8  22:50:17  -4.1   -2.9     -7.24767     2      4      
iter:   9  22:50:22  -4.4   -3.1     -7.24817     3      3      
iter:  10  22:50:27  -4.4   -2.9     -7.24855     3      4      
iter:  11  22:50:32  -4.8   -2.9     -7.24893     3      4      
iter:  12  22:50:36  -4.8   -2.9     -7.24898     3      5      
iter:  13  22:50:40  -5.2   -2.8     -7.24905     2      4      
iter:  14  22:50:45  -5.5   -2.8     -7.24895     2      4      
iter:  15  22:50:50  -5.1   -2.9     -7.24918     3      5      
iter:  16  22:50:55  -5.6   -2.8     -7.24930     3      5      
iter:  17  22:50:59  -5.5   -3.3     -7.24904     3      4      
iter:  18  22:51:03  -5.9   -3.4     -7.24933     2      3      
iter:  19  22:51:08  -6.1   -3.5     -7.24907     2      2      
iter:  20  22:51:12  -6.0   -3.6     -7.24900     2      3      
iter:  21  22:51:15  -6.3   -3.7     -7.24926     2      2      
iter:  22  22:51:19  -6.3   -3.8     -7.24928     2      2      
iter:  23  22:51:23  -6.5   -3.9     -7.24939     1      2      
iter:  24  22:51:26  -6.7   -4.2     -7.24929     2      2      
iter:  25  22:51:30  -6.9   -4.3     -7.24926     2      1      
iter:  26  22:51:35  -7.0   -4.3     -7.24925     2      2      
iter:  27  22:51:43  -7.3   -4.3     -7.24904     2      2      
iter:  28  22:51:48  -7.4   -4.2     -7.24936     2      2      
iter:  29  22:51:53  -7.4   -4.2     -7.24895     2      2      
iter:  30  22:51:58  -7.7   -4.2     -7.24897     2      2      
iter:  31  22:52:04  -7.8   -4.2     -7.24908     2      2      
iter:  32  22:52:09  -7.9   -4.2     -7.24918     2      1      
iter:  33  22:52:13  -7.4   -4.3     -7.24930     2      2      
iter:  34  22:52:17  -8.2   -4.6     -7.24929     2      1      
iter:  35  22:52:21  -8.5   -4.7     -7.24912     2      1      
iter:  36  22:52:25  -8.7   -4.7     -7.24902     2      1      
iter:  37  22:52:29  -8.9   -4.8     -7.24899     2      1      
iter:  38  22:52:34  -9.3   -5.3     -7.24906     1      1      
------------------------------------
Converged After 38 Iterations.

Energy Contributions Relative to Reference Atom:(reference = -500096.92588)
-------------------------
Kinetic:        +20.79632
Potential:      -19.81791
External:        +0.00000
XC:              -8.48507
Entropy (-ST):   -0.05468
Local:           +0.28494
-------------------------
Free Energy:     -7.27640
Zero Kelvin:     -7.24906

Fermi Level: 15.61140


Total Charge:  0.000000 electrons
Dipole Moment: [-1.17228126 -1.17228126 -1.17228126]

Memory estimate
---------------
Calculator  243.16 MiB
    Initial overhead  228.36 MiB
    Density  6.73 MiB
        Arrays  0.34 MiB
        Localized functions  5.67 MiB
        Mixer  0.08 MiB
        Interpolator  0.64 MiB
    Hamiltonian  2.15 MiB
        Arrays  0.22 MiB
        Restrictor  0.37 MiB
        XC 3D grid  0.11 MiB
        Poisson  1.03 MiB
        vbar  0.42 MiB
    Wavefunctions  5.92 MiB
        Arrays psit_nG  3.96 MiB
        Eigensolver  0.53 MiB
        Projectors  0.95 MiB
        Overlap op  0.40 MiB
        Kinetic operator  0.09 MiB

Positions:
  0 Pt    0.0000    0.0000    0.0000

                
                
                
                
       Pt       
                
                
                

Unit Cell:
           Periodic     X           Y           Z      Points  Spacing
  --------------------------------------------------------------------
  1. axis:    yes    0.000000    2.025000    2.025000    12     0.2386
  2. axis:    yes    2.025000    0.000000    2.025000    12     0.2386
  3. axis:    yes    2.025000    2.025000    0.000000    12     0.2386

Pt-setup:
  name   : Platinum
  id     : b5c9217a4fb7fe6dfe11761931a73f7e
  Z      : 78
  valence: 10
  core   : 68
  charge : 0.0
  file   : /usr/share/gpaw-setups/Pt.LDA.gz
  cutoffs: 1.22(comp), 2.51(filt), 2.91(core), lmax=2
  valence states:
            energy   radius
    6s(1)   -5.930   1.323
    6p(0)   -0.962   1.429
    5d(9)   -6.387   1.217
    *s      21.281   1.323
    *p      26.249   1.429
    *d      20.825   1.217

Using partial waves for Pt as LCAO basis

Using the LDA Exchange-Correlation Functional.
Spin-Paired Calculation
Total Charge:      0.000000
Fermi Temperature: 0.100000
Mode: Finite-difference
Eigensolver:       rmm-diis
                   (3 nearest neighbors central finite-difference stencil)
Poisson Solver:    Jacobi 
                   (3 nearest neighbors central finite-difference stencil)
Interpolation:     6th Order
Reference Energy:  -500096.925876

Total number of cores used: 1
Diagonalizer layout: Serial LAPACK
Orthonormalizer layout: Serial LAPACK

Symmetries present: 48
10 k-points in the Irreducible Part of the Brillouin Zone (total: 64)
Linear Mixing Parameter:           0.1
Pulay Mixing with 3 Old Densities
Damping of Long Wave Oscillations: 50

Convergence Criteria:
Total Energy Change per Atom:           0.001 eV / atom
Integral of Absolute Density Change:    0.0001 electrons
Integral of Absolute Eigenstate Change: 1e-09
Number of Bands in Calculation:         15
Bands to Converge:                      Occupied States Only
Number of Valence Electrons:            10
                     log10-error:    Total        Iterations:
           Time      WFS    Density  Energy       Fermi  Poisson
iter:   1  22:52:48  +2.3            -7.47533     5      12     
iter:   2  22:52:51  -2.1            -7.87015     3             
iter:   3  22:52:54  -2.8            -7.91554     2             
iter:   4  22:52:58  -2.8   -1.1     -7.72488     5      6      
iter:   5  22:53:02  -1.7   -1.2     -7.38043     12     8      
iter:   6  22:53:06  -3.0   -2.1     -7.42204     5      6      
iter:   7  22:53:09  -3.6   -2.0     -7.41598     3      6      
iter:   8  22:53:13  -4.4   -3.1     -7.41673     2      3      
iter:   9  22:53:17  -4.7   -3.3     -7.41730     2      2      
iter:  10  22:53:21  -5.2   -3.2     -7.41714     2      3      
iter:  11  22:53:25  -5.2   -3.3     -7.41732     2      3      
iter:  12  22:53:29  -5.8   -3.4     -7.41730     2      3      
iter:  13  22:53:33  -5.9   -3.5     -7.41736     2      3      
iter:  14  22:53:36  -6.1   -3.6     -7.41739     2      3      
iter:  15  22:53:39  -6.3   -3.6     -7.41732     2      3      
iter:  16  22:53:42  -6.5   -3.6     -7.41737     2      2      
iter:  17  22:53:46  -6.5   -3.7     -7.41731     2      3      
iter:  18  22:53:49  -6.8   -3.8     -7.41758     2      2      
iter:  19  22:53:52  -6.9   -3.8     -7.41728     1      2      
iter:  20  22:53:56  -7.3   -3.9     -7.41735     2      2      
iter:  21  22:53:59  -7.4   -4.0     -7.41760     2      2      
iter:  22  22:54:03  -7.7   -4.2     -7.41758     2      1      
iter:  23  22:54:06  -7.9   -4.2     -7.41743     2      2      
iter:  24  22:54:10  -8.1   -4.4     -7.41745     1      2      
iter:  25  22:54:13  -8.2   -4.5     -7.41768     2      1      
iter:  26  22:54:17  -8.5   -4.8     -7.41746     1      1      
iter:  27  22:54:20  -8.5   -4.8     -7.41758     2      2      
iter:  28  22:54:24  -8.9   -4.5     -7.41710     1      1      
iter:  29  22:54:28  -8.8   -4.7     -7.41738     2      2      
iter:  30  22:54:31  -9.2   -4.9     -7.41743     1      1      
------------------------------------
Converged After 30 Iterations.

Energy Contributions Relative to Reference Atom:(reference = -500096.92588)
-------------------------
Kinetic:        -16.38452
Potential:      +12.52715
External:        +0.00000
XC:              -3.73596
Entropy (-ST):   -0.07379
Local:           +0.21279
-------------------------
Free Energy:     -7.45432
Zero Kelvin:     -7.41743

Fermi Level: 10.62278


Total Charge:  0.000000 electrons
Dipole Moment: [-1.36993185 -1.36993185 -1.36993185]

Memory estimate
---------------
Calculator  240.77 MiB
    Initial overhead  228.36 MiB
    Density  4.80 MiB
        Arrays  0.34 MiB
        Localized functions  3.75 MiB
        Mixer  0.08 MiB
        Interpolator  0.64 MiB
    Hamiltonian  2.01 MiB
        Arrays  0.22 MiB
        Restrictor  0.37 MiB
        XC 3D grid  0.11 MiB
        Poisson  1.03 MiB
        vbar  0.28 MiB
    Wavefunctions  5.60 MiB
        Arrays psit_nG  3.96 MiB
        Eigensolver  0.53 MiB
        Projectors  0.63 MiB
        Overlap op  0.40 MiB
        Kinetic operator  0.09 MiB

Positions:
  0 Pt    0.0000    0.0000    0.0000

                
                
                
                
       Pt       
                
                
                

Unit Cell:
           Periodic     X           Y           Z      Points  Spacing
  --------------------------------------------------------------------
  1. axis:    yes    0.000000    2.325000    2.325000    12     0.2740
  2. axis:    yes    2.325000    0.000000    2.325000    12     0.2740
  3. axis:    yes    2.325000    2.325000    0.000000    12     0.2740

Pt-setup:
  name   : Platinum
  id     : b5c9217a4fb7fe6dfe11761931a73f7e
  Z      : 78
  valence: 10
  core   : 68
  charge : 0.0
  file   : /usr/share/gpaw-setups/Pt.LDA.gz
  cutoffs: 1.22(comp), 2.51(filt), 2.91(core), lmax=2
  valence states:
            energy   radius
    6s(1)   -5.930   1.323
    6p(0)   -0.962   1.429
    5d(9)   -6.387   1.217
    *s      21.281   1.323
    *p      26.249   1.429
    *d      20.825   1.217

Using partial waves for Pt as LCAO basis

Using the LDA Exchange-Correlation Functional.
Spin-Paired Calculation
Total Charge:      0.000000
Fermi Temperature: 0.100000
Mode: Finite-difference
Eigensolver:       rmm-diis
                   (3 nearest neighbors central finite-difference stencil)
Poisson Solver:    Jacobi 
                   (3 nearest neighbors central finite-difference stencil)
Interpolation:     6th Order
Reference Energy:  -500096.925876

Total number of cores used: 1
Diagonalizer layout: Serial LAPACK
Orthonormalizer layout: Serial LAPACK

Symmetries present: 48
10 k-points in the Irreducible Part of the Brillouin Zone (total: 64)
Linear Mixing Parameter:           0.1
Pulay Mixing with 3 Old Densities
Damping of Long Wave Oscillations: 50

Convergence Criteria:
Total Energy Change per Atom:           0.001 eV / atom
Integral of Absolute Density Change:    0.0001 electrons
Integral of Absolute Eigenstate Change: 1e-09
Number of Bands in Calculation:         15
Bands to Converge:                      Occupied States Only
Number of Valence Electrons:            10
                     log10-error:    Total        Iterations:
           Time      WFS    Density  Energy       Fermi  Poisson
iter:   1  22:54:39  +1.9            -5.79020     3      13     
iter:   2  22:54:42  -2.8            -5.94456     3             
iter:   3  22:54:45  -3.5            -5.95801     2             
iter:   4  22:54:47  -3.0   -1.1     -5.78389     6      7      
iter:   5  22:54:50  -2.0   -1.2     -5.57591     11     8      
iter:   6  22:54:53  -3.0   -1.9     -5.60381     4      7      
iter:   7  22:54:55  -3.8   -2.3     -5.60381     4      5      
iter:   8  22:54:58  -4.5   -3.0     -5.60439     3      3      
iter:   9  22:55:01  -4.7   -3.0     -5.60487     2      3      
iter:  10  22:55:03  -5.5   -2.9     -5.60518     3      4      
iter:  11  22:55:06  -5.6   -2.9     -5.60479     3      4      
iter:  12  22:55:08  -6.1   -3.1     -5.60468     2      3      
iter:  13  22:55:11  -6.4   -3.1     -5.60479     2      3      
iter:  14  22:55:13  -6.6   -3.2     -5.60502     2      3      
iter:  15  22:55:16  -6.6   -3.3     -5.60505     2      3      
iter:  16  22:55:18  -6.9   -3.4     -5.60507     2      3      
iter:  17  22:55:21  -7.2   -3.7     -5.60489     2      2      
iter:  18  22:55:24  -6.9   -3.8     -5.60457     2      2      
iter:  19  22:55:27  -7.4   -3.9     -5.60471     2      2      
iter:  20  22:55:29  -7.8   -3.9     -5.60485     2      2      
iter:  21  22:55:32  -7.7   -4.0     -5.60492     2      1      
iter:  22  22:55:34  -8.1   -4.0     -5.60497     2      2      
iter:  23  22:55:37  -8.4   -4.7     -5.60498     2      1      
iter:  24  22:55:39  -8.5   -5.0     -5.60494     2      1      
iter:  25  22:55:42  -8.7   -5.0     -5.60493     1      1      
iter:  26  22:55:45  -8.5   -5.0     -5.60500     1      1      
iter:  27  22:55:47  -9.4   -5.0     -5.60498     1      1      
------------------------------------
Converged After 27 Iterations.

Energy Contributions Relative to Reference Atom:(reference = -500096.92588)
-------------------------
Kinetic:        -30.18229
Potential:      +24.44868
External:        +0.00000
XC:              +0.00359
Entropy (-ST):   -0.10893
Local:           +0.17951
-------------------------
Free Energy:     -5.65944
Zero Kelvin:     -5.60498

Fermi Level: 4.41141


Total Charge:  0.000000 electrons
Dipole Moment: [-1.79305108 -1.79305108 -1.79305108]

Memory estimate
---------------
Calculator  241.80 MiB
    Initial overhead  228.36 MiB
    Density  5.63 MiB
        Arrays  0.34 MiB
        Localized functions  4.57 MiB
        Mixer  0.08 MiB
        Interpolator  0.64 MiB
    Hamiltonian  2.07 MiB
        Arrays  0.22 MiB
        Restrictor  0.37 MiB
        XC 3D grid  0.11 MiB
        Poisson  1.03 MiB
        vbar  0.34 MiB
    Wavefunctions  5.73 MiB
        Arrays psit_nG  3.96 MiB
        Eigensolver  0.53 MiB
        Projectors  0.76 MiB
        Overlap op  0.40 MiB
        Kinetic operator  0.09 MiB

Positions:
  0 Pt    0.0000    0.0000    0.0000

                
                
                
                
       Pt       
                
                
                

Unit Cell:
           Periodic     X           Y           Z      Points  Spacing
  --------------------------------------------------------------------
  1. axis:    yes    0.000000    2.175000    2.175000    12     0.2563
  2. axis:    yes    2.175000    0.000000    2.175000    12     0.2563
  3. axis:    yes    2.175000    2.175000    0.000000    12     0.2563

Pt-setup:
  name   : Platinum
  id     : b5c9217a4fb7fe6dfe11761931a73f7e
  Z      : 78
  valence: 10
  core   : 68
  charge : 0.0
  file   : /usr/share/gpaw-setups/Pt.LDA.gz
  cutoffs: 1.22(comp), 2.51(filt), 2.91(core), lmax=2
  valence states:
            energy   radius
    6s(1)   -5.930   1.323
    6p(0)   -0.962   1.429
    5d(9)   -6.387   1.217
    *s      21.281   1.323
    *p      26.249   1.429
    *d      20.825   1.217

Using partial waves for Pt as LCAO basis

Using the LDA Exchange-Correlation Functional.
Spin-Paired Calculation
Total Charge:      0.000000
Fermi Temperature: 0.100000
Mode: Finite-difference
Eigensolver:       rmm-diis
                   (3 nearest neighbors central finite-difference stencil)
Poisson Solver:    Jacobi 
                   (3 nearest neighbors central finite-difference stencil)
Interpolation:     6th Order
Reference Energy:  -500096.925876

Total number of cores used: 1
Diagonalizer layout: Serial LAPACK
Orthonormalizer layout: Serial LAPACK

Symmetries present: 48
10 k-points in the Irreducible Part of the Brillouin Zone (total: 64)
Linear Mixing Parameter:           0.1
Pulay Mixing with 3 Old Densities
Damping of Long Wave Oscillations: 50

Convergence Criteria:
Total Energy Change per Atom:           0.001 eV / atom
Integral of Absolute Density Change:    0.0001 electrons
Integral of Absolute Eigenstate Change: 1e-09
Number of Bands in Calculation:         15
Bands to Converge:                      Occupied States Only
Number of Valence Electrons:            10
                     log10-error:    Total        Iterations:
           Time      WFS    Density  Energy       Fermi  Poisson
iter:   1  22:55:59  +2.1            -6.79581     4      12     
iter:   2  22:56:01  -2.4            -7.03841     2             
iter:   3  22:56:04  -3.2            -7.06586     2             
iter:   4  22:56:06  -2.9   -1.1     -6.86613     5      6      
iter:   5  22:56:09  -1.8   -1.2     -6.57922     12     8      
iter:   6  22:56:12  -2.9   -2.0     -6.61840     5      7      
iter:   7  22:56:15  -3.5   -1.9     -6.61214     4      6      
iter:   8  22:56:18  -4.3   -3.1     -6.61323     2      3      
iter:   9  22:56:21  -4.6   -3.2     -6.61391     2      3      
iter:  10  22:56:24  -5.6   -3.1     -6.61360     2      3      
iter:  11  22:56:28  -5.7   -3.2     -6.61379     2      4      
iter:  12  22:56:31  -6.2   -3.7     -6.61405     2      2      
iter:  13  22:56:34  -5.9   -3.8     -6.61396     2      2      
iter:  14  22:56:37  -6.7   -3.9     -6.61362     2      2      
iter:  15  22:56:39  -6.8   -3.8     -6.61421     2      2      
iter:  16  22:56:42  -6.9   -3.9     -6.61406     2      2      
iter:  17  22:56:45  -7.2   -3.9     -6.61377     2      2      
iter:  18  22:56:48  -7.4   -3.8     -6.61387     2      2      
iter:  19  22:56:51  -7.3   -3.9     -6.61413     2      2      
iter:  20  22:56:53  -7.7   -3.9     -6.61373     2      2      
iter:  21  22:56:56  -7.9   -3.8     -6.61379     2      1      
iter:  22  22:56:59  -7.7   -3.9     -6.61385     2      2      
iter:  23  22:57:02  -7.7   -4.0     -6.61391     2      2      
iter:  24  22:57:05  -7.9   -4.2     -6.61381     2      2      
iter:  25  22:57:08  -8.7   -4.3     -6.61355     2      1      
iter:  26  22:57:11  -8.3   -4.4     -6.61378     2      2      
iter:  27  22:57:14  -9.0   -4.4     -6.61415     2      1      
------------------------------------
Converged After 27 Iterations.

Energy Contributions Relative to Reference Atom:(reference = -500096.92588)
-------------------------
Kinetic:        -29.35629
Potential:      +23.78917
External:        +0.00000
XC:              -1.20336
Entropy (-ST):   -0.09364
Local:           +0.20315
-------------------------
Free Energy:     -6.66097
Zero Kelvin:     -6.61415

Fermi Level: 7.03565


Total Charge:  -0.000000 electrons
Dipole Moment: [-1.57630353 -1.57630353 -1.57630353]

Memory estimate
---------------
Calculator  244.98 MiB
    Initial overhead  228.36 MiB
    Density  8.20 MiB
        Arrays  0.34 MiB
        Localized functions  7.14 MiB
        Mixer  0.08 MiB
        Interpolator  0.64 MiB
    Hamiltonian  2.26 MiB
        Arrays  0.22 MiB
        Restrictor  0.37 MiB
        XC 3D grid  0.11 MiB
        Poisson  1.03 MiB
        vbar  0.53 MiB
    Wavefunctions  6.16 MiB
        Arrays psit_nG  3.96 MiB
        Eigensolver  0.53 MiB
        Projectors  1.19 MiB
        Overlap op  0.40 MiB
        Kinetic operator  0.09 MiB

Positions:
  0 Pt    0.0000    0.0000    0.0000

                
                
                
                
       Pt       
                
                
                

Unit Cell:
           Periodic     X           Y           Z      Points  Spacing
  --------------------------------------------------------------------
  1. axis:    yes    0.000000    1.875000    1.875000    12     0.2210
  2. axis:    yes    1.875000    0.000000    1.875000    12     0.2210
  3. axis:    yes    1.875000    1.875000    0.000000    12     0.2210

Pt-setup:
  name   : Platinum
  id     : b5c9217a4fb7fe6dfe11761931a73f7e
  Z      : 78
  valence: 10
  core   : 68
  charge : 0.0
  file   : /usr/share/gpaw-setups/Pt.LDA.gz
  cutoffs: 1.22(comp), 2.51(filt), 2.91(core), lmax=2
  valence states:
            energy   radius
    6s(1)   -5.930   1.323
    6p(0)   -0.962   1.429
    5d(9)   -6.387   1.217
    *s      21.281   1.323
    *p      26.249   1.429
    *d      20.825   1.217

Using partial waves for Pt as LCAO basis

Using the LDA Exchange-Correlation Functional.
Spin-Paired Calculation
Total Charge:      0.000000
Fermi Temperature: 0.100000
Mode: Finite-difference
Eigensolver:       rmm-diis
                   (3 nearest neighbors central finite-difference stencil)
Poisson Solver:    Jacobi 
                   (3 nearest neighbors central finite-difference stencil)
Interpolation:     6th Order
Reference Energy:  -500096.925876

Total number of cores used: 1
Diagonalizer layout: Serial LAPACK
Orthonormalizer layout: Serial LAPACK

Symmetries present: 48
10 k-points in the Irreducible Part of the Brillouin Zone (total: 64)
Linear Mixing Parameter:           0.1
Pulay Mixing with 3 Old Densities
Damping of Long Wave Oscillations: 50

Convergence Criteria:
Total Energy Change per Atom:           0.001 eV / atom
Integral of Absolute Density Change:    0.0001 electrons
Integral of Absolute Eigenstate Change: 1e-09
Number of Bands in Calculation:         15
Bands to Converge:                      Occupied States Only
Number of Valence Electrons:            10
                     log10-error:    Total        Iterations:
           Time      WFS    Density  Energy       Fermi  Poisson
iter:   1  22:57:30  +2.5            -7.10608     7      11     
iter:   2  22:57:36  -1.7            -7.66875     3             
iter:   3  22:57:41  -2.5            -7.73830     2             
iter:   4  22:57:46  -2.7   -1.2     -7.58532     4      6      
iter:   5  22:57:50  -1.6   -1.3     -7.22716     11     8      
iter:   6  22:57:55  -3.1   -2.2     -7.25685     4      6      
iter:   7  22:57:59  -3.7   -2.1     -7.24695     3      6      
iter:   8  22:58:05  -4.1   -2.9     -7.24767     2      4      
iter:   9  22:58:09  -4.4   -3.1     -7.24817     3      3      
iter:  10  22:58:13  -4.4   -2.9     -7.24855     3      4      
iter:  11  22:58:17  -4.8   -2.9     -7.24893     3      4      
iter:  12  22:58:21  -4.8   -2.9     -7.24898     3      5      
iter:  13  22:58:25  -5.2   -2.8     -7.24905     2      4      
iter:  14  22:58:29  -5.5   -2.8     -7.24895     2      4      
iter:  15  22:58:32  -5.1   -2.9     -7.24918     3      5      
iter:  16  22:58:36  -5.6   -2.8     -7.24930     3      5      
iter:  17  22:58:40  -5.5   -3.3     -7.24904     3      4      
iter:  18  22:58:43  -5.9   -3.4     -7.24933     2      3      
iter:  19  22:58:47  -6.1   -3.5     -7.24907     2      2      
iter:  20  22:58:51  -6.0   -3.6     -7.24900     2      3      
iter:  21  22:58:54  -6.3   -3.7     -7.24926     2      2      
iter:  22  22:58:58  -6.3   -3.8     -7.24928     2      2      
iter:  23  22:59:02  -6.5   -3.9     -7.24939     1      2      
iter:  24  22:59:05  -6.7   -4.2     -7.24929     2      2      
iter:  25  22:59:09  -6.9   -4.3     -7.24926     2      1      
iter:  26  22:59:13  -7.0   -4.3     -7.24925     2      2      
iter:  27  22:59:17  -7.3   -4.3     -7.24904     2      2      
iter:  28  22:59:20  -7.4   -4.2     -7.24936     2      2      
iter:  29  22:59:24  -7.4   -4.2     -7.24895     2      2      
iter:  30  22:59:29  -7.7   -4.2     -7.24897     2      2      
iter:  31  22:59:32  -7.8   -4.2     -7.24908     2      2      
iter:  32  22:59:36  -7.9   -4.2     -7.24918     2      1      
iter:  33  22:59:40  -7.4   -4.3     -7.24930     2      2      
iter:  34  22:59:43  -8.2   -4.6     -7.24929     2      1      
iter:  35  22:59:47  -8.5   -4.7     -7.24912     2      1      
iter:  36  22:59:51  -8.7   -4.7     -7.24902     2      1      
iter:  37  22:59:54  -8.9   -4.8     -7.24899     2      1      
iter:  38  22:59:58  -9.3   -5.3     -7.24906     1      1      
------------------------------------
Converged After 38 Iterations.

Energy Contributions Relative to Reference Atom:(reference = -500096.92588)
-------------------------
Kinetic:        +20.79632
Potential:      -19.81791
External:        +0.00000
XC:              -8.48507
Entropy (-ST):   -0.05468
Local:           +0.28494
-------------------------
Free Energy:     -7.27640
Zero Kelvin:     -7.24906

Fermi Level: 15.61140


Total Charge:  0.000000 electrons
Dipole Moment: [-1.17228126 -1.17228126 -1.17228126]

Memory estimate
---------------
Calculator  244.00 MiB
    Initial overhead  228.36 MiB
    Density  7.41 MiB
        Arrays  0.34 MiB
        Localized functions  6.35 MiB
        Mixer  0.08 MiB
        Interpolator  0.64 MiB
    Hamiltonian  2.20 MiB
        Arrays  0.22 MiB
        Restrictor  0.37 MiB
        XC 3D grid  0.11 MiB
        Poisson  1.03 MiB
        vbar  0.47 MiB
    Wavefunctions  6.03 MiB
        Arrays psit_nG  3.96 MiB
        Eigensolver  0.53 MiB
        Projectors  1.06 MiB
        Overlap op  0.40 MiB
        Kinetic operator  0.09 MiB

Positions:
  0 Pt    0.0000    0.0000    0.0000

                
                
                
                
       Pt       
                
                
                

Unit Cell:
           Periodic     X           Y           Z      Points  Spacing
  --------------------------------------------------------------------
  1. axis:    yes    0.000000    1.950000    1.950000    12     0.2298
  2. axis:    yes    1.950000    0.000000    1.950000    12     0.2298
  3. axis:    yes    1.950000    1.950000    0.000000    12     0.2298

Pt-setup:
  name   : Platinum
  id     : b5c9217a4fb7fe6dfe11761931a73f7e
  Z      : 78
  valence: 10
  core   : 68
  charge : 0.0
  file   : /usr/share/gpaw-setups/Pt.LDA.gz
  cutoffs: 1.22(comp), 2.51(filt), 2.91(core), lmax=2
  valence states:
            energy   radius
    6s(1)   -5.930   1.323
    6p(0)   -0.962   1.429
    5d(9)   -6.387   1.217
    *s      21.281   1.323
    *p      26.249   1.429
    *d      20.825   1.217

Using partial waves for Pt as LCAO basis

Using the LDA Exchange-Correlation Functional.
Spin-Paired Calculation
Total Charge:      0.000000
Fermi Temperature: 0.100000
Mode: Finite-difference
Eigensolver:       rmm-diis
                   (3 nearest neighbors central finite-difference stencil)
Poisson Solver:    Jacobi 
                   (3 nearest neighbors central finite-difference stencil)
Interpolation:     6th Order
Reference Energy:  -500096.925876

Total number of cores used: 1
Diagonalizer layout: Serial LAPACK
Orthonormalizer layout: Serial LAPACK

Symmetries present: 48
10 k-points in the Irreducible Part of the Brillouin Zone (total: 64)
Linear Mixing Parameter:           0.1
Pulay Mixing with 3 Old Densities
Damping of Long Wave Oscillations: 50

Convergence Criteria:
Total Energy Change per Atom:           0.001 eV / atom
Integral of Absolute Density Change:    0.0001 electrons
Integral of Absolute Eigenstate Change: 1e-09
Number of Bands in Calculation:         15
Bands to Converge:                      Occupied States Only
Number of Valence Electrons:            10
                     log10-error:    Total        Iterations:
           Time      WFS    Density  Energy       Fermi  Poisson
iter:   1  23:00:11  +2.4            -7.49761     6      12     
iter:   2  23:00:14  -1.9            -7.97957     3             
iter:   3  23:00:17  -2.6            -8.03717     2             
iter:   4  23:00:21  -2.8   -1.2     -7.86376     5      6      
iter:   5  23:00:24  -1.6   -1.3     -7.50962     12     8      
iter:   6  23:00:27  -3.0   -2.1     -7.54690     5      6      
iter:   7  23:00:31  -3.7   -2.0     -7.53978     3      6      
iter:   8  23:00:34  -4.3   -3.0     -7.54057     2      4      
iter:   9  23:00:38  -4.7   -3.2     -7.54081     2      3      
iter:  10  23:00:41  -4.7   -3.2     -7.54130     3      3      
iter:  11  23:00:45  -5.2   -3.1     -7.54116     2      3      
iter:  12  23:00:48  -5.4   -3.1     -7.54095     2      3      
iter:  13  23:00:51  -5.2   -3.0     -7.54141     3      4      
iter:  14  23:00:55  -5.7   -3.0     -7.54131     2      4      
iter:  15  23:00:58  -6.0   -3.0     -7.54123     2      3      
iter:  16  23:01:01  -5.6   -3.0     -7.54131     2      5      
iter:  17  23:01:04  -6.1   -3.1     -7.54150     2      4      
iter:  18  23:01:07  -5.8   -3.4     -7.54128     2      4      
iter:  19  23:01:11  -6.5   -3.7     -7.54152     2      3      
iter:  20  23:01:14  -6.7   -3.9     -7.54134     2      2      
iter:  21  23:01:18  -6.8   -4.0     -7.54131     2      3      
iter:  22  23:01:21  -7.0   -4.1     -7.54161     2      1      
iter:  23  23:01:24  -7.0   -4.1     -7.54113     2      2      
iter:  24  23:01:28  -7.2   -4.0     -7.54136     2      2      
iter:  25  23:01:31  -7.2   -3.9     -7.54152     2      3      
iter:  26  23:01:34  -7.7   -4.2     -7.54136     2      2      
iter:  27  23:01:38  -7.7   -4.4     -7.54141     2      2      
iter:  28  23:01:41  -7.9   -4.5     -7.54150     2      2      
iter:  29  23:01:44  -8.1   -4.8     -7.54134     2      1      
iter:  30  23:01:47  -8.3   -5.0     -7.54133     2      1      
iter:  31  23:01:51  -8.5   -5.0     -7.54148     2      1      
iter:  32  23:01:54  -8.7   -5.4     -7.54142     1      1      
iter:  33  23:01:57  -8.8   -5.4     -7.54140     1      1      
iter:  34  23:02:01  -9.2   -5.3     -7.54151     2      1      
------------------------------------
Converged After 34 Iterations.

Energy Contributions Relative to Reference Atom:(reference = -500096.92588)
-------------------------
Kinetic:         -2.10504
Potential:       +0.10300
External:        +0.00000
XC:              -5.75319
Entropy (-ST):   -0.06344
Local:           +0.24543
-------------------------
Free Energy:     -7.57323
Zero Kelvin:     -7.54151

Fermi Level: 12.90743


Total Charge:  0.000000 electrons
Dipole Moment: [-1.27012465 -1.27012465 -1.27012465]

Memory estimate
---------------
Calculator  244.98 MiB
    Initial overhead  228.36 MiB
    Density  8.20 MiB
        Arrays  0.34 MiB
        Localized functions  7.14 MiB
        Mixer  0.08 MiB
        Interpolator  0.64 MiB
    Hamiltonian  2.26 MiB
        Arrays  0.22 MiB
        Restrictor  0.37 MiB
        XC 3D grid  0.11 MiB
        Poisson  1.03 MiB
        vbar  0.53 MiB
    Wavefunctions  6.16 MiB
        Arrays psit_nG  3.96 MiB
        Eigensolver  0.53 MiB
        Projectors  1.19 MiB
        Overlap op  0.40 MiB
        Kinetic operator  0.09 MiB

Positions:
  0 Pt    0.0000    0.0000    0.0000

                
                
                
                
       Pt       
                
                
                

Unit Cell:
           Periodic     X           Y           Z      Points  Spacing
  --------------------------------------------------------------------
  1. axis:    yes    0.000000    1.875000    1.875000    12     0.2210
  2. axis:    yes    1.875000    0.000000    1.875000    12     0.2210
  3. axis:    yes    1.875000    1.875000    0.000000    12     0.2210

Pt-setup:
  name   : Platinum
  id     : b5c9217a4fb7fe6dfe11761931a73f7e
  Z      : 78
  valence: 10
  core   : 68
  charge : 0.0
  file   : /usr/share/gpaw-setups/Pt.LDA.gz
  cutoffs: 1.22(comp), 2.51(filt), 2.91(core), lmax=2
  valence states:
            energy   radius
    6s(1)   -5.930   1.323
    6p(0)   -0.962   1.429
    5d(9)   -6.387   1.217
    *s      21.281   1.323
    *p      26.249   1.429
    *d      20.825   1.217

Using partial waves for Pt as LCAO basis

Using the LDA Exchange-Correlation Functional.
Spin-Paired Calculation
Total Charge:      0.000000
Fermi Temperature: 0.100000
Mode: Finite-difference
Eigensolver:       rmm-diis
                   (3 nearest neighbors central finite-difference stencil)
Poisson Solver:    Jacobi 
                   (3 nearest neighbors central finite-difference stencil)
Interpolation:     6th Order
Reference Energy:  -500096.925876

Total number of cores used: 1
Diagonalizer layout: Serial LAPACK
Orthonormalizer layout: Serial LAPACK

Symmetries present: 48
10 k-points in the Irreducible Part of the Brillouin Zone (total: 64)
Linear Mixing Parameter:           0.1
Pulay Mixing with 3 Old Densities
Damping of Long Wave Oscillations: 50

Convergence Criteria:
Total Energy Change per Atom:           0.001 eV / atom
Integral of Absolute Density Change:    0.0001 electrons
Integral of Absolute Eigenstate Change: 1e-09
Number of Bands in Calculation:         15
Bands to Converge:                      Occupied States Only
Number of Valence Electrons:            10
                     log10-error:    Total        Iterations:
           Time      WFS    Density  Energy       Fermi  Poisson
iter:   1  23:02:16  +2.5            -7.10608     7      11     
iter:   2  23:02:20  -1.7            -7.66875     3             
iter:   3  23:02:24  -2.5            -7.73830     2             
iter:   4  23:02:28  -2.7   -1.2     -7.58532     4      6      
iter:   5  23:02:32  -1.6   -1.3     -7.22716     11     8      
iter:   6  23:02:36  -3.1   -2.2     -7.25685     4      6      
iter:   7  23:02:39  -3.7   -2.1     -7.24695     3      6      
iter:   8  23:02:43  -4.1   -2.9     -7.24767     2      4      
iter:   9  23:02:47  -4.4   -3.1     -7.24817     3      3      
iter:  10  23:02:51  -4.4   -2.9     -7.24855     3      4      
iter:  11  23:02:55  -4.8   -2.9     -7.24893     3      4      
iter:  12  23:02:59  -4.8   -2.9     -7.24898     3      5      
iter:  13  23:03:03  -5.2   -2.8     -7.24905     2      4      
iter:  14  23:03:06  -5.5   -2.8     -7.24895     2      4      
iter:  15  23:03:10  -5.1   -2.9     -7.24918     3      5      
iter:  16  23:03:14  -5.6   -2.8     -7.24930     3      5      
iter:  17  23:03:17  -5.5   -3.3     -7.24904     3      4      
iter:  18  23:03:21  -5.9   -3.4     -7.24933     2      3      
iter:  19  23:03:25  -6.1   -3.5     -7.24907     2      2      
iter:  20  23:03:29  -6.0   -3.6     -7.24900     2      3      
iter:  21  23:03:32  -6.3   -3.7     -7.24926     2      2      
iter:  22  23:03:36  -6.3   -3.8     -7.24928     2      2      
iter:  23  23:03:39  -6.5   -3.9     -7.24939     1      2      
iter:  24  23:03:43  -6.7   -4.2     -7.24929     2      2      
iter:  25  23:03:46  -6.9   -4.3     -7.24926     2      1      
iter:  26  23:03:49  -7.0   -4.3     -7.24925     2      2      
iter:  27  23:03:53  -7.3   -4.3     -7.24904     2      2      
iter:  28  23:03:56  -7.4   -4.2     -7.24936     2      2      
iter:  29  23:04:00  -7.4   -4.2     -7.24895     2      2      
iter:  30  23:04:03  -7.7   -4.2     -7.24897     2      2      
iter:  31  23:04:07  -7.8   -4.2     -7.24908     2      2      
iter:  32  23:04:11  -7.9   -4.2     -7.24918     2      1      
iter:  33  23:04:15  -7.4   -4.3     -7.24930     2      2      
iter:  34  23:04:20  -8.2   -4.6     -7.24929     2      1      
iter:  35  23:04:26  -8.5   -4.7     -7.24912     2      1      
iter:  36  23:04:31  -8.7   -4.7     -7.24902     2      1      
iter:  37  23:04:36  -8.9   -4.8     -7.24899     2      1      
iter:  38  23:04:41  -9.3   -5.3     -7.24906     1      1      
------------------------------------
Converged After 38 Iterations.

Energy Contributions Relative to Reference Atom:(reference = -500096.92588)
-------------------------
Kinetic:        +20.79632
Potential:      -19.81791
External:        +0.00000
XC:              -8.48507
Entropy (-ST):   -0.05468
Local:           +0.28494
-------------------------
Free Energy:     -7.27640
Zero Kelvin:     -7.24906

Fermi Level: 15.61140


Total Charge:  0.000000 electrons
Dipole Moment: [-1.17228126 -1.17228126 -1.17228126]

Memory estimate
---------------
Calculator  251.78 MiB
    Initial overhead  236.58 MiB
    Density  7.05 MiB
        Arrays  0.34 MiB
        Localized functions  6.00 MiB
        Mixer  0.08 MiB
        Interpolator  0.64 MiB
    Hamiltonian  2.18 MiB
        Arrays  0.22 MiB
        Restrictor  0.37 MiB
        XC 3D grid  0.11 MiB
        Poisson  1.03 MiB
        vbar  0.44 MiB
    Wavefunctions  5.97 MiB
        Arrays psit_nG  3.96 MiB
        Eigensolver  0.53 MiB
        Projectors  1.00 MiB
        Overlap op  0.40 MiB
        Kinetic operator  0.09 MiB

Positions:
  0 Pt    0.0000    0.0000    0.0000

                
                
                
                
       Pt       
                
                
                

Unit Cell:
           Periodic     X           Y           Z      Points  Spacing
  --------------------------------------------------------------------
  1. axis:    yes    0.000000    1.987500    1.987500    12     0.2342
  2. axis:    yes    1.987500    0.000000    1.987500    12     0.2342
  3. axis:    yes    1.987500    1.987500    0.000000    12     0.2342

Pt-setup:
  name   : Platinum
  id     : b5c9217a4fb7fe6dfe11761931a73f7e
  Z      : 78
  valence: 10
  core   : 68
  charge : 0.0
  file   : /usr/share/gpaw-setups/Pt.LDA.gz
  cutoffs: 1.22(comp), 2.51(filt), 2.91(core), lmax=2
  valence states:
            energy   radius
    6s(1)   -5.930   1.323
    6p(0)   -0.962   1.429
    5d(9)   -6.387   1.217
    *s      21.281   1.323
    *p      26.249   1.429
    *d      20.825   1.217

Using partial waves for Pt as LCAO basis

Using the LDA Exchange-Correlation Functional.
Spin-Paired Calculation
Total Charge:      0.000000
Fermi Temperature: 0.100000
Mode: Finite-difference
Eigensolver:       rmm-diis
                   (3 nearest neighbors central finite-difference stencil)
Poisson Solver:    Jacobi 
                   (3 nearest neighbors central finite-difference stencil)
Interpolation:     6th Order
Reference Energy:  -500096.925876

Total number of cores used: 1
Diagonalizer layout: Serial LAPACK
Orthonormalizer layout: Serial LAPACK

Symmetries present: 48
10 k-points in the Irreducible Part of the Brillouin Zone (total: 64)
Linear Mixing Parameter:           0.1
Pulay Mixing with 3 Old Densities
Damping of Long Wave Oscillations: 50

Convergence Criteria:
Total Energy Change per Atom:           0.001 eV / atom
Integral of Absolute Density Change:    0.0001 electrons
Integral of Absolute Eigenstate Change: 1e-09
Number of Bands in Calculation:         15
Bands to Converge:                      Occupied States Only
Number of Valence Electrons:            10
                     log10-error:    Total        Iterations:
           Time      WFS    Density  Energy       Fermi  Poisson
iter:   1  23:04:53  +2.4            -7.52652     5      12     
iter:   2  23:04:56  -2.0            -7.96644     3             
iter:   3  23:04:59  -2.7            -8.01773     2             
iter:   4  23:05:04  -2.8   -1.2     -7.83496     5      6      
iter:   5  23:05:09  -1.6   -1.2     -7.48439     12     8      
iter:   6  23:05:13  -3.0   -2.1     -7.52417     5      6      
iter:   7  23:05:16  -3.7   -2.0     -7.51773     3      6      
iter:   8  23:05:19  -4.4   -3.1     -7.51841     2      3      
iter:   9  23:05:22  -4.7   -3.3     -7.51869     2      2      
iter:  10  23:05:25  -5.0   -3.2     -7.51901     2      3      
iter:  11  23:05:28  -5.3   -3.2     -7.51929     2      2      
iter:  12  23:05:31  -5.5   -3.2     -7.51896     2      3      
iter:  13  23:05:36  -5.6   -3.1     -7.51930     2      3      
iter:  14  23:05:39  -5.9   -3.1     -7.51916     2      4      
iter:  15  23:05:42  -6.0   -3.2     -7.51912     2      3      
iter:  16  23:05:45  -6.1   -3.2     -7.51913     2      4      
iter:  17  23:05:48  -6.4   -3.4     -7.51888     2      2      
iter:  18  23:05:51  -6.5   -3.5     -7.51915     2      3      
iter:  19  23:05:54  -6.5   -3.5     -7.51906     2      3      
iter:  20  23:05:57  -6.9   -3.7     -7.51920     2      2      
iter:  21  23:05:59  -6.6   -3.8     -7.51913     2      3      
iter:  22  23:06:02  -7.1   -4.0     -7.51944     2      2      
iter:  23  23:06:05  -7.2   -4.2     -7.51942     2      1      
iter:  24  23:06:08  -7.6   -4.2     -7.51910     2      2      
iter:  25  23:06:11  -7.7   -4.9     -7.51923     1      1      
iter:  26  23:06:14  -8.0   -4.9     -7.51923     1      1      
iter:  27  23:06:18  -8.1   -4.7     -7.51935     2      1      
iter:  28  23:06:21  -8.4   -5.1     -7.51929     1      1      
iter:  29  23:06:24  -8.5   -5.1     -7.51924     1      1      
iter:  30  23:06:28  -8.8   -4.9     -7.51927     2      1      
iter:  31  23:06:30  -8.9   -4.9     -7.51928     2      1      
iter:  32  23:06:34  -8.8   -5.0     -7.51923     2      1      
iter:  33  23:06:37  -9.3   -4.9     -7.51913     2      1      
------------------------------------
Converged After 33 Iterations.

Energy Contributions Relative to Reference Atom:(reference = -500096.92588)
-------------------------
Kinetic:        -10.18412
Potential:       +7.13538
External:        +0.00000
XC:              -4.66449
Entropy (-ST):   -0.06848
Local:           +0.22835
-------------------------
Free Energy:     -7.55337
Zero Kelvin:     -7.51913

Fermi Level: 11.71708


Total Charge:  -0.000000 electrons
Dipole Moment: [-1.31976611 -1.31976611 -1.31976611]

Memory estimate
---------------
Calculator  252.69 MiB
    Initial overhead  236.58 MiB
    Density  7.79 MiB
        Arrays  0.34 MiB
        Localized functions  6.73 MiB
        Mixer  0.08 MiB
        Interpolator  0.64 MiB
    Hamiltonian  2.23 MiB
        Arrays  0.22 MiB
        Restrictor  0.37 MiB
        XC 3D grid  0.11 MiB
        Poisson  1.03 MiB
        vbar  0.50 MiB
    Wavefunctions  6.09 MiB
        Arrays psit_nG  3.96 MiB
        Eigensolver  0.53 MiB
        Projectors  1.12 MiB
        Overlap op  0.40 MiB
        Kinetic operator  0.09 MiB

Positions:
  0 Pt    0.0000    0.0000    0.0000

                
                
                
                
       Pt       
                
                
                

Unit Cell:
           Periodic     X           Y           Z      Points  Spacing
  --------------------------------------------------------------------
  1. axis:    yes    0.000000    1.912500    1.912500    12     0.2254
  2. axis:    yes    1.912500    0.000000    1.912500    12     0.2254
  3. axis:    yes    1.912500    1.912500    0.000000    12     0.2254

Pt-setup:
  name   : Platinum
  id     : b5c9217a4fb7fe6dfe11761931a73f7e
  Z      : 78
  valence: 10
  core   : 68
  charge : 0.0
  file   : /usr/share/gpaw-setups/Pt.LDA.gz
  cutoffs: 1.22(comp), 2.51(filt), 2.91(core), lmax=2
  valence states:
            energy   radius
    6s(1)   -5.930   1.323
    6p(0)   -0.962   1.429
    5d(9)   -6.387   1.217
    *s      21.281   1.323
    *p      26.249   1.429
    *d      20.825   1.217

Using partial waves for Pt as LCAO basis

Using the LDA Exchange-Correlation Functional.
Spin-Paired Calculation
Total Charge:      0.000000
Fermi Temperature: 0.100000
Mode: Finite-difference
Eigensolver:       rmm-diis
                   (3 nearest neighbors central finite-difference stencil)
Poisson Solver:    Jacobi 
                   (3 nearest neighbors central finite-difference stencil)
Interpolation:     6th Order
Reference Energy:  -500096.925876

Total number of cores used: 1
Diagonalizer layout: Serial LAPACK
Orthonormalizer layout: Serial LAPACK

Symmetries present: 48
10 k-points in the Irreducible Part of the Brillouin Zone (total: 64)
Linear Mixing Parameter:           0.1
Pulay Mixing with 3 Old Densities
Damping of Long Wave Oscillations: 50

Convergence Criteria:
Total Energy Change per Atom:           0.001 eV / atom
Integral of Absolute Density Change:    0.0001 electrons
Integral of Absolute Eigenstate Change: 1e-09
Number of Bands in Calculation:         15
Bands to Converge:                      Occupied States Only
Number of Valence Electrons:            10
                     log10-error:    Total        Iterations:
           Time      WFS    Density  Energy       Fermi  Poisson
iter:   1  23:06:51  +2.5            -7.36680     6      12     
iter:   2  23:06:55  -1.8            -7.88953     3             
iter:   3  23:07:00  -2.6            -7.95321     2             
iter:   4  23:07:04  -2.8   -1.2     -7.79004     4      6      
iter:   5  23:07:09  -1.6   -1.3     -7.43439     11     8      
iter:   6  23:07:13  -3.1   -2.2     -7.46789     5      6      
iter:   7  23:07:17  -3.8   -2.1     -7.45964     3      6      
iter:   8  23:07:21  -4.2   -3.0     -7.46043     2      4      
iter:   9  23:07:26  -4.5   -3.2     -7.46073     3      3      
iter:  10  23:07:30  -4.6   -3.1     -7.46114     3      4      
iter:  11  23:07:35  -5.0   -3.0     -7.46106     3      3      
iter:  12  23:07:39  -5.2   -3.0     -7.46123     2      4      
iter:  13  23:07:44  -5.1   -3.1     -7.46153     3      5      
iter:  14  23:07:49  -5.7   -3.1     -7.46190     2      2      
iter:  15  23:07:54  -5.9   -3.1     -7.46145     2      3      
iter:  16  23:07:58  -6.1   -3.1     -7.46147     2      3      
iter:  17  23:08:02  -5.6   -3.1     -7.46143     3      4      
iter:  18  23:08:07  -5.9   -3.9     -7.46131     2      3      
iter:  19  23:08:12  -6.2   -4.0     -7.46133     1      2      
iter:  20  23:08:16  -6.4   -4.0     -7.46161     2      3      
iter:  21  23:08:19  -6.5   -3.6     -7.46134     2      3      
iter:  22  23:08:24  -6.6   -3.9     -7.46139     2      3      
iter:  23  23:08:29  -6.7   -4.1     -7.46136     2      2      
iter:  24  23:08:33  -7.0   -4.1     -7.46174     1      2      
iter:  25  23:08:36  -7.1   -4.4     -7.46139     2      2      
iter:  26  23:08:42  -7.4   -4.4     -7.46141     2      2      
iter:  27  23:08:46  -7.5   -4.5     -7.46129     2      2      
iter:  28  23:08:50  -7.7   -4.5     -7.46166     2      2      
iter:  29  23:08:53  -7.9   -4.6     -7.46135     2      2      
iter:  30  23:08:57  -8.2   -5.1     -7.46151     2      1      
iter:  31  23:09:02  -8.3   -5.3     -7.46147     1      1      
iter:  32  23:09:06  -8.5   -5.3     -7.46162     2      1      
iter:  33  23:09:10  -8.6   -4.9     -7.46132     2      1      
iter:  34  23:09:14  -8.8   -5.3     -7.46128     1      1      
iter:  35  23:09:19  -9.0   -5.3     -7.46153     2      1      
iter:  36  23:09:23  -9.2   -5.6     -7.46148     1      1      
------------------------------------
Converged After 36 Iterations.

Energy Contributions Relative to Reference Atom:(reference = -500096.92588)
-------------------------
Kinetic:         +8.04062
Potential:       -8.72282
External:        +0.00000
XC:              -7.01700
Entropy (-ST):   -0.05882
Local:           +0.26712
-------------------------
Free Energy:     -7.49089
Zero Kelvin:     -7.46148

Fermi Level: 14.20224


Total Charge:  0.000000 electrons
Dipole Moment: [-1.22097176 -1.22097176 -1.22097176]

Memory estimate
---------------
Calculator  260.93 MiB
    Initial overhead  245.52 MiB
    Density  7.23 MiB
        Arrays  0.34 MiB
        Localized functions  6.17 MiB
        Mixer  0.08 MiB
        Interpolator  0.64 MiB
    Hamiltonian  2.19 MiB
        Arrays  0.22 MiB
        Restrictor  0.37 MiB
        XC 3D grid  0.11 MiB
        Poisson  1.03 MiB
        vbar  0.46 MiB
    Wavefunctions  6.00 MiB
        Arrays psit_nG  3.96 MiB
        Eigensolver  0.53 MiB
        Projectors  1.03 MiB
        Overlap op  0.40 MiB
        Kinetic operator  0.09 MiB

Positions:
  0 Pt    0.0000    0.0000    0.0000

                
                
                
                
       Pt       
                
                
                

Unit Cell:
           Periodic     X           Y           Z      Points  Spacing
  --------------------------------------------------------------------
  1. axis:    yes    0.000000    1.968750    1.968750    12     0.2320
  2. axis:    yes    1.968750    0.000000    1.968750    12     0.2320
  3. axis:    yes    1.968750    1.968750    0.000000    12     0.2320

Pt-setup:
  name   : Platinum
  id     : b5c9217a4fb7fe6dfe11761931a73f7e
  Z      : 78
  valence: 10
  core   : 68
  charge : 0.0
  file   : /usr/share/gpaw-setups/Pt.LDA.gz
  cutoffs: 1.22(comp), 2.51(filt), 2.91(core), lmax=2
  valence states:
            energy   radius
    6s(1)   -5.930   1.323
    6p(0)   -0.962   1.429
    5d(9)   -6.387   1.217
    *s      21.281   1.323
    *p      26.249   1.429
    *d      20.825   1.217

Using partial waves for Pt as LCAO basis

Using the LDA Exchange-Correlation Functional.
Spin-Paired Calculation
Total Charge:      0.000000
Fermi Temperature: 0.100000
Mode: Finite-difference
Eigensolver:       rmm-diis
                   (3 nearest neighbors central finite-difference stencil)
Poisson Solver:    Jacobi 
                   (3 nearest neighbors central finite-difference stencil)
Interpolation:     6th Order
Reference Energy:  -500096.925876

Total number of cores used: 1
Diagonalizer layout: Serial LAPACK
Orthonormalizer layout: Serial LAPACK

Symmetries present: 48
10 k-points in the Irreducible Part of the Brillouin Zone (total: 64)
Linear Mixing Parameter:           0.1
Pulay Mixing with 3 Old Densities
Damping of Long Wave Oscillations: 50

Convergence Criteria:
Total Energy Change per Atom:           0.001 eV / atom
Integral of Absolute Density Change:    0.0001 electrons
Integral of Absolute Eigenstate Change: 1e-09
Number of Bands in Calculation:         15
Bands to Converge:                      Occupied States Only
Number of Valence Electrons:            10
                     log10-error:    Total        Iterations:
           Time      WFS    Density  Energy       Fermi  Poisson
iter:   1  23:09:40  +2.4            -7.52396     6      12     
iter:   2  23:09:44  -1.9            -7.98467     3             
iter:   3  23:09:48  -2.7            -8.03902     2             
iter:   4  23:09:52  -2.8   -1.2     -7.86080     5      6      
iter:   5  23:09:56  -1.6   -1.3     -7.50795     12     8      
iter:   6  23:10:00  -3.0   -2.1     -7.54680     5      6      
iter:   7  23:10:04  -3.7   -2.0     -7.54004     3      6      
iter:   8  23:10:08  -4.3   -3.1     -7.54071     2      3      
iter:   9  23:10:12  -4.7   -3.3     -7.54082     2      2      
iter:  10  23:10:16  -4.8   -3.2     -7.54144     2      3      
iter:  11  23:10:19  -5.3   -3.1     -7.54143     2      3      
iter:  12  23:10:23  -5.3   -3.1     -7.54115     3      3      
iter:  13  23:10:27  -5.3   -2.9     -7.54159     3      4      
iter:  14  23:10:31  -5.8   -3.0     -7.54165     2      3      
iter:  15  23:10:35  -6.0   -3.0     -7.54144     2      3      
iter:  16  23:10:39  -6.0   -3.1     -7.54144     2      4      
iter:  17  23:10:43  -5.8   -3.3     -7.54161     2      4      
iter:  18  23:10:47  -6.4   -3.3     -7.54156     2      4      
iter:  19  23:10:50  -6.6   -3.5     -7.54153     2      3      
iter:  20  23:10:54  -6.4   -3.6     -7.54147     2      3      
iter:  21  23:10:58  -6.7   -3.6     -7.54168     2      3      
iter:  22  23:11:02  -7.0   -3.7     -7.54143     1      2      
iter:  23  23:11:06  -7.0   -3.7     -7.54154     2      3      
iter:  24  23:11:09  -7.2   -3.9     -7.54171     2      3      
iter:  25  23:11:13  -7.3   -4.0     -7.54154     2      2      
iter:  26  23:11:16  -7.4   -4.2     -7.54166     2      2      
iter:  27  23:11:20  -7.6   -4.4     -7.54210     2      1      
iter:  28  23:11:24  -7.8   -4.5     -7.54198     2      1      
iter:  29  23:11:29  -8.0   -4.5     -7.54148     2      2      
iter:  30  23:11:33  -8.0   -4.6     -7.54172     2      2      
iter:  31  23:11:37  -8.4   -4.9     -7.54174     1      1      
iter:  32  23:11:41  -8.6   -5.0     -7.54153     2      1      
iter:  33  23:11:45  -8.8   -5.0     -7.54136     2      1      
iter:  34  23:11:48  -9.0   -5.2     -7.54165     1      1      
iter:  35  23:11:52  -9.2   -5.2     -7.54162     1      1      
------------------------------------
Converged After 35 Iterations.

Energy Contributions Relative to Reference Atom:(reference = -500096.92588)
-------------------------
Kinetic:         -6.34367
Potential:       +3.78994
External:        +0.00000
[...]

Positions:
  0 Pt    0.0000    0.0000    0.0000

                
                
                
                
       Pt       
                
                
                

Unit Cell:
           Periodic     X           Y           Z      Points  Spacing
  --------------------------------------------------------------------
  1. axis:    yes    0.000000    1.957654    1.957654    12     0.2307
  2. axis:    yes    1.957654    0.000000    1.957654    12     0.2307
  3. axis:    yes    1.957654    1.957654    0.000000    12     0.2307

Pt-setup:
  name   : Platinum
  id     : b5c9217a4fb7fe6dfe11761931a73f7e
  Z      : 78
  valence: 10
  core   : 68
  charge : 0.0
  file   : /usr/share/gpaw-setups/Pt.LDA.gz
  cutoffs: 1.22(comp), 2.51(filt), 2.91(core), lmax=2
  valence states:
            energy   radius
    6s(1)   -5.930   1.323
    6p(0)   -0.962   1.429
    5d(9)   -6.387   1.217
    *s      21.281   1.323
    *p      26.249   1.429
    *d      20.825   1.217

Using partial waves for Pt as LCAO basis

Using the LDA Exchange-Correlation Functional.
Spin-Paired Calculation
Total Charge:      0.000000
Fermi Temperature: 0.100000
Mode: Finite-difference
Eigensolver:       rmm-diis
                   (3 nearest neighbors central finite-difference stencil)
Poisson Solver:    Jacobi 
                   (3 nearest neighbors central finite-difference stencil)
Interpolation:     6th Order
Reference Energy:  -500096.925876

Total number of cores used: 1
Diagonalizer layout: Serial LAPACK
Orthonormalizer layout: Serial LAPACK

Symmetries present: 48
10 k-points in the Irreducible Part of the Brillouin Zone (total: 64)
Linear Mixing Parameter:           0.1
Pulay Mixing with 3 Old Densities
Damping of Long Wave Oscillations: 50

Convergence Criteria:
Total Energy Change per Atom:           0.001 eV / atom
Integral of Absolute Density Change:    0.0001 electrons
Integral of Absolute Eigenstate Change: 1e-09
Number of Bands in Calculation:         15
Bands to Converge:                      Occupied States Only
Number of Valence Electrons:            10
                     log10-error:    Total        Iterations:
           Time      WFS    Density  Energy       Fermi  Poisson
iter:   1  23:53:05  +2.4            -7.51166     6      12     
iter:   2  23:53:08  -1.9            -7.98450     3             
iter:   3  23:53:11  -2.7            -8.04080     2             
iter:   4  23:53:13  -2.8   -1.2     -7.86540     5      6      
iter:   5  23:53:16  -1.6   -1.3     -7.51167     12     8      
iter:   6  23:53:19  -3.0   -2.1     -7.54966     5      6      
iter:   7  23:53:22  -3.7   -2.0     -7.54270     3      6      
iter:   8  23:53:25  -4.3   -3.1     -7.54337     2      3      
iter:   9  23:53:28  -4.7   -3.3     -7.54374     2      3      
iter:  10  23:53:30  -4.7   -3.2     -7.54417     2      3      
iter:  11  23:53:33  -5.2   -3.1     -7.54409     2      3      
iter:  12  23:53:36  -5.3   -3.1     -7.54387     2      3      
iter:  13  23:53:39  -5.3   -3.0     -7.54429     3      4      
iter:  14  23:53:42  -5.8   -3.0     -7.54428     2      3      
iter:  15  23:53:44  -6.0   -3.0     -7.54414     2      3      
iter:  16  23:53:47  -6.0   -3.0     -7.54416     2      4      
iter:  17  23:53:50  -5.9   -3.2     -7.54426     2      3      
iter:  18  23:53:53  -5.9   -3.4     -7.54420     2      4      
iter:  19  23:53:56  -6.3   -3.5     -7.54402     2      2      
iter:  20  23:53:59  -6.3   -3.6     -7.54412     2      3      
iter:  21  23:54:01  -6.7   -3.8     -7.54418     2      2      
iter:  22  23:54:04  -6.9   -3.9     -7.54427     2      2      
iter:  23  23:54:07  -6.9   -4.0     -7.54434     2      2      
iter:  24  23:54:10  -7.3   -4.8     -7.54452     2      1      
iter:  25  23:54:12  -7.6   -4.9     -7.54430     1      1      
iter:  26  23:54:15  -7.8   -4.8     -7.54470     2      1      
iter:  27  23:54:18  -8.0   -4.7     -7.54441     1      1      
iter:  28  23:54:21  -8.2   -4.6     -7.54406     2      1      
iter:  29  23:54:24  -8.4   -4.6     -7.54474     2      1      
iter:  30  23:54:26  -8.1   -4.5     -7.54416     2      2      
iter:  31  23:54:29  -8.5   -4.5     -7.54422     2      1      
iter:  32  23:54:32  -8.8   -4.5     -7.54420     2      1      
iter:  33  23:54:35  -8.6   -4.5     -7.54422     2      2      
iter:  34  23:54:38  -9.0   -4.7     -7.54449     2      1      
------------------------------------
Converged After 34 Iterations.

Energy Contributions Relative to Reference Atom:(reference = -500096.92588)
-------------------------
Kinetic:         -3.91621
Potential:       +1.67991
External:        +0.00000
XC:              -5.51795
Entropy (-ST):   -0.06443
Local:           +0.24198
-------------------------
Free Energy:     -7.57671
Zero Kelvin:     -7.54449

Fermi Level: 12.65652


Total Charge:  0.000000 electrons
Dipole Moment: [-1.28019493 -1.28019493 -1.28019493]

Memory estimate
---------------
Calculator  351.63 MiB
    Initial overhead  336.08 MiB
    Density  7.33 MiB
        Arrays  0.34 MiB
        Localized functions  6.27 MiB
        Mixer  0.08 MiB
        Interpolator  0.64 MiB
    Hamiltonian  2.20 MiB
        Arrays  0.22 MiB
        Restrictor  0.37 MiB
        XC 3D grid  0.11 MiB
        Poisson  1.03 MiB
        vbar  0.47 MiB
    Wavefunctions  6.02 MiB
        Arrays psit_nG  3.96 MiB
        Eigensolver  0.53 MiB
        Projectors  1.05 MiB
        Overlap op  0.40 MiB
        Kinetic operator  0.09 MiB

Positions:
  0 Pt    0.0000    0.0000    0.0000

                
                
                
                
       Pt       
                
                
                

Unit Cell:
           Periodic     X           Y           Z      Points  Spacing
  --------------------------------------------------------------------
  1. axis:    yes    0.000000    1.957581    1.957581    12     0.2307
  2. axis:    yes    1.957581    0.000000    1.957581    12     0.2307
  3. axis:    yes    1.957581    1.957581    0.000000    12     0.2307

Pt-setup:
  name   : Platinum
  id     : b5c9217a4fb7fe6dfe11761931a73f7e
  Z      : 78
  valence: 10
  core   : 68
  charge : 0.0
  file   : /usr/share/gpaw-setups/Pt.LDA.gz
  cutoffs: 1.22(comp), 2.51(filt), 2.91(core), lmax=2
  valence states:
            energy   radius
    6s(1)   -5.930   1.323
    6p(0)   -0.962   1.429
    5d(9)   -6.387   1.217
    *s      21.281   1.323
    *p      26.249   1.429
    *d      20.825   1.217

Using partial waves for Pt as LCAO basis

Using the LDA Exchange-Correlation Functional.
Spin-Paired Calculation
Total Charge:      0.000000
Fermi Temperature: 0.100000
Mode: Finite-difference
Eigensolver:       rmm-diis
                   (3 nearest neighbors central finite-difference stencil)
Poisson Solver:    Jacobi 
                   (3 nearest neighbors central finite-difference stencil)
Interpolation:     6th Order
Reference Energy:  -500096.925876

Total number of cores used: 1
Diagonalizer layout: Serial LAPACK
Orthonormalizer layout: Serial LAPACK

Symmetries present: 48
10 k-points in the Irreducible Part of the Brillouin Zone (total: 64)
Linear Mixing Parameter:           0.1
Pulay Mixing with 3 Old Densities
Damping of Long Wave Oscillations: 50

Convergence Criteria:
Total Energy Change per Atom:           0.001 eV / atom
Integral of Absolute Density Change:    0.0001 electrons
Integral of Absolute Eigenstate Change: 1e-09
Number of Bands in Calculation:         15
Bands to Converge:                      Occupied States Only
Number of Valence Electrons:            10
                     log10-error:    Total        Iterations:
           Time      WFS    Density  Energy       Fermi  Poisson
iter:   1  23:54:49  +2.4            -7.51154     6      12     
iter:   2  23:54:51  -1.9            -7.98447     3             
iter:   3  23:54:54  -2.7            -8.04079     2             
iter:   4  23:54:57  -2.8   -1.2     -7.86540     5      6      
iter:   5  23:54:59  -1.6   -1.3     -7.51167     12     8      
iter:   6  23:55:02  -3.0   -2.1     -7.54965     5      6      
iter:   7  23:55:05  -3.7   -2.0     -7.54269     3      6      
iter:   8  23:55:08  -4.3   -3.1     -7.54336     2      3      
iter:   9  23:55:11  -4.7   -3.3     -7.54373     2      3      
iter:  10  23:55:14  -4.7   -3.2     -7.54416     2      3      
iter:  11  23:55:16  -5.2   -3.1     -7.54408     2      3      
iter:  12  23:55:19  -5.3   -3.1     -7.54386     2      3      
iter:  13  23:55:22  -5.3   -3.0     -7.54428     3      4      
iter:  14  23:55:25  -5.8   -3.0     -7.54427     2      3      
iter:  15  23:55:28  -6.0   -3.0     -7.54413     2      3      
iter:  16  23:55:30  -6.0   -3.0     -7.54415     2      4      
iter:  17  23:55:33  -6.0   -3.2     -7.54425     2      3      
iter:  18  23:55:36  -5.9   -3.4     -7.54419     2      4      
iter:  19  23:55:39  -6.3   -3.5     -7.54401     2      2      
iter:  20  23:55:42  -6.3   -3.6     -7.54412     2      3      
iter:  21  23:55:44  -6.7   -3.8     -7.54416     2      2      
iter:  22  23:55:47  -6.9   -3.8     -7.54425     2      2      
iter:  23  23:55:50  -6.9   -3.9     -7.54435     2      2      
iter:  24  23:55:53  -7.3   -4.8     -7.54448     2      1      
iter:  25  23:55:55  -7.6   -4.9     -7.54423     1      1      
iter:  26  23:55:58  -7.8   -4.8     -7.54470     2      1      
iter:  27  23:56:01  -8.0   -4.7     -7.54434     1      1      
iter:  28  23:56:04  -8.2   -4.6     -7.54432     2      1      
iter:  29  23:56:06  -8.4   -4.6     -7.54443     2      1      
iter:  30  23:56:09  -8.3   -4.5     -7.54420     2      2      
iter:  31  23:56:12  -8.5   -4.5     -7.54436     2      1      
iter:  32  23:56:15  -8.9   -4.4     -7.54416     2      1      
iter:  33  23:56:18  -8.3   -4.5     -7.54414     2      2      
iter:  34  23:56:20  -9.0   -4.6     -7.54457     2      1      
------------------------------------
Converged After 34 Iterations.

Energy Contributions Relative to Reference Atom:(reference = -500096.92588)
-------------------------
Kinetic:         -3.91608
Potential:       +1.68052
External:        +0.00000
XC:              -5.51948
Entropy (-ST):   -0.06442
Local:           +0.24269
-------------------------
Free Energy:     -7.57678
Zero Kelvin:     -7.54457

Fermi Level: 12.65891


Total Charge:  0.000000 electrons
Dipole Moment: [-1.28009883 -1.28009883 -1.28009883]

Memory estimate
---------------
Calculator  351.63 MiB
    Initial overhead  336.08 MiB
    Density  7.33 MiB
        Arrays  0.34 MiB
        Localized functions  6.27 MiB
        Mixer  0.08 MiB
        Interpolator  0.64 MiB
    Hamiltonian  2.20 MiB
        Arrays  0.22 MiB
        Restrictor  0.37 MiB
        XC 3D grid  0.11 MiB
        Poisson  1.03 MiB
        vbar  0.47 MiB
    Wavefunctions  6.02 MiB
        Arrays psit_nG  3.96 MiB
        Eigensolver  0.53 MiB
        Projectors  1.05 MiB
        Overlap op  0.40 MiB
        Kinetic operator  0.09 MiB

Positions:
  0 Pt    0.0000    0.0000    0.0000

                
                
                
                
       Pt       
                
                
                

Unit Cell:
           Periodic     X           Y           Z      Points  Spacing
  --------------------------------------------------------------------
  1. axis:    yes    0.000000    1.957599    1.957599    12     0.2307
  2. axis:    yes    1.957599    0.000000    1.957599    12     0.2307
  3. axis:    yes    1.957599    1.957599    0.000000    12     0.2307

Pt-setup:
  name   : Platinum
  id     : b5c9217a4fb7fe6dfe11761931a73f7e
  Z      : 78
  valence: 10
  core   : 68
  charge : 0.0
  file   : /usr/share/gpaw-setups/Pt.LDA.gz
  cutoffs: 1.22(comp), 2.51(filt), 2.91(core), lmax=2
  valence states:
            energy   radius
    6s(1)   -5.930   1.323
    6p(0)   -0.962   1.429
    5d(9)   -6.387   1.217
    *s      21.281   1.323
    *p      26.249   1.429
    *d      20.825   1.217

Using partial waves for Pt as LCAO basis

Using the LDA Exchange-Correlation Functional.
Spin-Paired Calculation
Total Charge:      0.000000
Fermi Temperature: 0.100000
Mode: Finite-difference
Eigensolver:       rmm-diis
                   (3 nearest neighbors central finite-difference stencil)
Poisson Solver:    Jacobi 
                   (3 nearest neighbors central finite-difference stencil)
Interpolation:     6th Order
Reference Energy:  -500096.925876

Total number of cores used: 1
Diagonalizer layout: Serial LAPACK
Orthonormalizer layout: Serial LAPACK

Symmetries present: 48
10 k-points in the Irreducible Part of the Brillouin Zone (total: 64)
Linear Mixing Parameter:           0.1
Pulay Mixing with 3 Old Densities
Damping of Long Wave Oscillations: 50

Convergence Criteria:
Total Energy Change per Atom:           0.001 eV / atom
Integral of Absolute Density Change:    0.0001 electrons
Integral of Absolute Eigenstate Change: 1e-09
Number of Bands in Calculation:         15
Bands to Converge:                      Occupied States Only
Number of Valence Electrons:            10
                     log10-error:    Total        Iterations:
           Time      WFS    Density  Energy       Fermi  Poisson
iter:   1  23:56:31  +2.4            -7.51157     6      12     
iter:   2  23:56:34  -1.9            -7.98447     3             
iter:   3  23:56:37  -2.7            -8.04079     2             
iter:   4  23:56:39  -2.8   -1.2     -7.86540     5      6      
iter:   5  23:56:42  -1.6   -1.3     -7.51167     12     8      
iter:   6  23:56:45  -3.0   -2.1     -7.54966     5      6      
iter:   7  23:56:48  -3.7   -2.0     -7.54269     3      6      
iter:   8  23:56:51  -4.3   -3.1     -7.54336     2      3      
iter:   9  23:56:54  -4.7   -3.3     -7.54373     2      3      
iter:  10  23:56:56  -4.7   -3.2     -7.54416     2      3      
iter:  11  23:56:59  -5.2   -3.1     -7.54408     2      3      
iter:  12  23:57:02  -5.3   -3.1     -7.54386     2      3      
iter:  13  23:57:05  -5.3   -3.0     -7.54428     3      4      
iter:  14  23:57:08  -5.8   -3.0     -7.54427     2      3      
iter:  15  23:57:10  -6.0   -3.0     -7.54414     2      3      
iter:  16  23:57:13  -6.0   -3.0     -7.54415     2      4      
iter:  17  23:57:16  -6.0   -3.2     -7.54425     2      3      
iter:  18  23:57:19  -5.9   -3.4     -7.54419     2      4      
iter:  19  23:57:22  -6.3   -3.5     -7.54401     2      2      
iter:  20  23:57:24  -6.3   -3.6     -7.54412     2      3      
iter:  21  23:57:27  -6.7   -3.8     -7.54417     2      2      
iter:  22  23:57:30  -6.9   -3.8     -7.54426     2      2      
iter:  23  23:57:33  -6.9   -4.0     -7.54434     2      2      
iter:  24  23:57:35  -7.3   -4.8     -7.54449     2      1      
iter:  25  23:57:38  -7.6   -4.9     -7.54425     1      1      
iter:  26  23:57:41  -7.8   -4.8     -7.54471     2      1      
iter:  27  23:57:44  -8.0   -4.7     -7.54435     1      1      
iter:  28  23:57:47  -8.2   -4.6     -7.54425     2      1      
iter:  29  23:57:49  -8.4   -4.6     -7.54454     1      1      
iter:  30  23:57:52  -8.2   -4.5     -7.54418     2      2      
iter:  31  23:57:55  -8.5   -4.5     -7.54433     2      1      
iter:  32  23:57:58  -8.9   -4.4     -7.54419     2      1      
iter:  33  23:58:01  -8.4   -4.5     -7.54415     2      2      
iter:  34  23:58:03  -9.0   -4.6     -7.54460     2      1      
------------------------------------
Converged After 34 Iterations.

Energy Contributions Relative to Reference Atom:(reference = -500096.92588)
-------------------------
Kinetic:         -3.90682
Potential:       +1.67176
External:        +0.00000
XC:              -5.51949
Entropy (-ST):   -0.06442
Local:           +0.24217
-------------------------
Free Energy:     -7.57681
Zero Kelvin:     -7.54460

Fermi Level: 12.65833


Total Charge:  -0.000000 electrons
Dipole Moment: [-1.28012243 -1.28012243 -1.28012243]
<?xml version="1.0" ?>
<test id="FCCLattice">
	<config>
		<potential>
			GPAW
		</potential>
		<element>
			Pt
		</element>
	</config>
	<results>
		<FCCLatticeConstant>
			3.915234375
		</FCCLatticeConstant>
		<FCCEnergyPerAtom>
			-7.54461192794
		</FCCEnergyPerAtom>
	</results>
</test>

Memory usage: 336.08 MB

============================================================
Timing:                               incl.     excl.
============================================================
Initialization:                     349.821    67.366   1.5% ||
 Hamiltonian:                        11.758     0.006   0.0% |
  Atomic:                             6.008     0.386   0.0% |
   XC Correction:                     5.622     5.622   0.1% |
  Communicate energies:               0.001     0.001   0.0% |
  Hartree integrate/restrict:         0.056     0.056   0.0% |
  Initialize Hamiltonian:             0.135     0.135   0.0% |
  Poisson:                            5.041     5.041   0.1% |
  XC 3D grid:                         0.488     0.488   0.0% |
  vbar:                               0.024     0.024   0.0% |
 LCAO initialization:               270.697    10.297   0.2% |
  LCAO eigensolver:                 195.377     0.069   0.0% |
   Atomic Hamiltonian:                0.059     0.059   0.0% |
   Calculate projections:             0.018     0.018   0.0% |
   Distribute overlap matrix:         0.007     0.007   0.0% |
   Orbital Layouts:                   0.131     0.131   0.0% |
   Potential matrix:                195.093   195.093   4.2% |-|
  LCAO to grid:                      39.917    39.917   0.9% |
  Set positions (LCAO WFS):          25.105     0.007   0.0% |
   Basic WFS set positions:           0.099     0.099   0.0% |
   Basis functions set positions:     0.002     0.002   0.0% |
   TCI: Calculate S, T, P:           24.996    24.996   0.5% |
SCF-cycle:                         4286.695    11.872   0.3% |
 Density:                            64.766     0.118   0.0% |
  Atomic density matrices:           10.655    10.655   0.2% |
  Mix:                               17.359    17.359   0.4% |
  Multipole moments:                  0.108     0.108   0.0% |
  Pseudo density:                    36.525    17.999   0.4% |
   Symmetrize density:               18.526    18.526   0.4% |
 Hamiltonian:                       243.081     0.200   0.0% |
  Atomic:                           185.277    11.343   0.2% |
   XC Correction:                   173.934   173.934   3.8% |-|
  Communicate energies:               0.019     0.019   0.0% |
  Hartree integrate/restrict:         1.679     1.679   0.0% |
  Poisson:                           38.473    38.473   0.8% |
  XC 3D grid:                        16.827    16.827   0.4% |
  vbar:                               0.605     0.605   0.0% |
 Orthonormalize:                    853.677   795.764  17.2% |------|
  Band Layouts:                       2.139     0.303   0.0% |
   Distribute results:                0.127     0.127   0.0% |
   Inverse Cholesky:                  1.709     1.709   0.0% |
  calc_matrix:                       31.431    31.431   0.7% |
  rotate_psi:                        24.343    24.343   0.5% |
 RMM-DIIS:                         2929.477  2550.606  55.0% |---------------------|
  precondition:                     378.871   378.871   8.2% |--|
 Subspace diag:                     183.822     2.287   0.0% |
  Band Layouts:                       5.754     0.515   0.0% |
   Diagonalize:                       4.931     4.931   0.1% |
   Distribute results:                0.308     0.308   0.0% |
  calc_matrix:                      130.901   130.901   2.8% ||
  rotate_psi:                        44.880    44.880   1.0% |
Other:                                0.275     0.275   0.0% |
============================================================
Total:                                       4636.791 100.0%
============================================================
date: Wed Feb  2 23:58:03 2011
