
  ___ ___ ___ _ _ _  
 |   |   |_  | | | | 
 | | | | | . | | | | 
 |__ |  _|___|_____|  0.7.2.6974
 |___|_|             

User: alemi@Cerebellum
Date: Wed Feb  2 21:51:24 2011
Arch: i686
Pid:  31567
Dir:  /usr/lib/python2.6/dist-packages/gpaw
ase:   /home/alemi/ase/ase  version:  3.5.0.1614
numpy: /usr/lib/python2.6/dist-packages/numpy
units: Angstrom and eV

Memory estimate
---------------
Calculator  128.04 MiB
    Initial overhead  123.73 MiB
    Density  1.86 MiB
        Arrays  0.10 MiB
        Localized functions  1.45 MiB
        Mixer  0.02 MiB
        Interpolator  0.28 MiB
    Hamiltonian  0.71 MiB
        Arrays  0.07 MiB
        Restrictor  0.16 MiB
        XC 3D grid  0.03 MiB
        Poisson  0.35 MiB
        vbar  0.11 MiB
    Wavefunctions  1.73 MiB
        Arrays psit_nG  1.17 MiB
        Eigensolver  0.16 MiB
        Projectors  0.24 MiB
        Overlap op  0.12 MiB
        Kinetic operator  0.04 MiB

Positions:
  0 Ni    0.0000    0.0000    0.0000

                
                
                
                
       Ni       
                
                
                

Unit Cell:
           Periodic     X           Y           Z      Points  Spacing
  --------------------------------------------------------------------
  1. axis:    yes    0.000000    1.500000    1.500000     8     0.2652
  2. axis:    yes    1.500000    0.000000    1.500000     8     0.2652
  3. axis:    yes    1.500000    1.500000    0.000000     8     0.2652

Ni-setup:
  name   : Nickel
  id     : 6dab36a46a24a91e25ff4f0c3a2da03f
  Z      : 28
  valence: 10
  core   : 18
  charge : 0.0
  file   : /usr/share/gpaw-setups/Ni.LDA.gz
  cutoffs: 0.95(comp), 1.77(filt), 2.43(core), lmax=2
  valence states:
            energy   radius
    4s(2)   -5.858   0.953
    4p(0)   -1.338   1.005
    3d(8)   -9.141   0.953
    *s      21.353   0.953
    *p      25.873   1.005
    *d      18.071   0.953

Using partial waves for Ni as LCAO basis

Using the LDA Exchange-Correlation Functional.
Spin-Paired Calculation
Total Charge:      0.000000
Fermi Temperature: 0.100000
Mode: Finite-difference
Eigensolver:       rmm-diis
                   (3 nearest neighbors central finite-difference stencil)
Poisson Solver:    Jacobi 
                   (3 nearest neighbors central finite-difference stencil)
Interpolation:     6th Order
Reference Energy:  -41300.610487

Total number of cores used: 1
Diagonalizer layout: Serial LAPACK
Orthonormalizer layout: Serial LAPACK

Symmetries present: 48
10 k-points in the Irreducible Part of the Brillouin Zone (total: 64)
Linear Mixing Parameter:           0.1
Pulay Mixing with 3 Old Densities
Damping of Long Wave Oscillations: 50

Convergence Criteria:
Total Energy Change per Atom:           0.001 eV / atom
Integral of Absolute Density Change:    0.0001 electrons
Integral of Absolute Eigenstate Change: 1e-09
Number of Bands in Calculation:         15
Bands to Converge:                      Occupied States Only
Number of Valence Electrons:            10
                     log10-error:    Total        Iterations:
           Time      WFS    Density  Energy       Fermi  Poisson
iter:   1  21:51:36  +2.3            -6.29045     4      14     
iter:   2  21:51:37  -1.4            -7.14084     3             
iter:   3  21:51:37  -2.0            -7.25106     2             
iter:   4  21:51:38  -2.5   -1.8     -7.27635     3      5      
iter:   5  21:51:39  -2.1   -1.9     -7.30479     8      6      
iter:   6  21:51:40  -3.2   -1.9     -7.31646     2      2      
iter:   7  21:51:41  -3.5   -1.9     -7.32500     2      5      
iter:   8  21:51:42  -3.4   -1.9     -7.35052     3      6      
iter:   9  21:51:43  -2.5   -1.8     -7.29720     6      7      
iter:  10  21:51:44  -3.1   -2.3     -7.29671     3      6      
iter:  11  21:51:45  -3.7   -2.4     -7.29767     3      5      
iter:  12  21:51:45  -4.0   -2.4     -7.29740     2      5      
iter:  13  21:51:46  -4.2   -2.7     -7.29774     2      4      
iter:  14  21:51:47  -4.3   -2.8     -7.29759     2      5      
iter:  15  21:51:48  -4.4   -3.2     -7.29746     2      3      
iter:  16  21:51:49  -4.4   -3.4     -7.29764     3      4      
iter:  17  21:51:50  -4.5   -4.0     -7.29762     2      1      
iter:  18  21:51:51  -4.6   -4.0     -7.29796     2      1      
iter:  19  21:51:52  -4.7   -4.1     -7.29830     2      2      
iter:  20  21:51:53  -4.8   -4.1     -7.29836     2      1      
iter:  21  21:51:53  -4.9   -4.2     -7.29826     2      1      
iter:  22  21:51:54  -5.0   -4.2     -7.29851     2      1      
iter:  23  21:51:55  -5.0   -4.2     -7.29827     2      2      
iter:  24  21:51:56  -5.1   -4.2     -7.29862     2      1      
iter:  25  21:51:57  -5.2   -4.1     -7.29854     2      2      
iter:  26  21:51:58  -5.3   -4.2     -7.29845     2      2      
iter:  27  21:51:59  -5.4   -4.1     -7.29884     2      2      
iter:  28  21:52:00  -5.4   -4.4     -7.29861     2      2      
iter:  29  21:52:01  -5.5   -4.3     -7.29865     2      2      
iter:  30  21:52:01  -5.6   -4.2     -7.29853     1      2      
iter:  31  21:52:02  -5.7   -4.2     -7.29873     2      3      
iter:  32  21:52:03  -5.8   -4.4     -7.29877     2      2      
iter:  33  21:52:04  -5.8   -4.5     -7.29876     2      2      
iter:  34  21:52:05  -5.9   -4.5     -7.29887     2      1      
iter:  35  21:52:06  -6.0   -4.6     -7.29886     2      1      
iter:  36  21:52:07  -6.1   -4.7     -7.29881     1      2      
iter:  37  21:52:08  -6.1   -4.7     -7.29872     2      1      
iter:  38  21:52:09  -6.2   -4.8     -7.29892     1      1      
iter:  39  21:52:09  -6.3   -5.0     -7.29887     2      1      
iter:  40  21:52:10  -6.4   -5.1     -7.29866     1      1      
iter:  41  21:52:11  -6.4   -5.2     -7.29868     2      1      
iter:  42  21:52:12  -6.5   -5.2     -7.29883     1      1      
iter:  43  21:52:13  -6.6   -5.4     -7.29883     1      1      
iter:  44  21:52:14  -6.6   -5.5     -7.29860     2      1      
iter:  45  21:52:15  -6.7   -5.5     -7.29878     1      1      
iter:  46  21:52:16  -6.8   -5.7     -7.29875     2      1      
iter:  47  21:52:17  -6.9   -5.7     -7.29882     2      1      
iter:  48  21:52:17  -6.9   -6.0     -7.29869     1      1      
iter:  49  21:52:18  -7.0   -5.8     -7.29873     1      1      
iter:  50  21:52:19  -7.1   -5.8     -7.29865     2      1      
iter:  51  21:52:20  -7.1   -5.4     -7.29867     1      1      
iter:  52  21:52:21  -7.2   -5.3     -7.29880     2      1      
iter:  53  21:52:22  -7.3   -5.5     -7.29873     1      1      
iter:  54  21:52:23  -7.4   -5.5     -7.29884     2      1      
iter:  55  21:52:24  -7.4   -5.6     -7.29871     1      1      
iter:  56  21:52:24  -7.5   -5.5     -7.29874     1      1      
iter:  57  21:52:26  -7.6   -5.6     -7.29877     1      1      
iter:  58  21:52:27  -7.6   -5.7     -7.29874     1      1      
iter:  59  21:52:28  -7.7   -5.7     -7.29872     1      1      
iter:  60  21:52:29  -7.8   -5.8     -7.29870     1      1      
iter:  61  21:52:30  -7.8   -5.9     -7.29872     1      1      
iter:  62  21:52:31  -7.9   -5.8     -7.29872     1      1      
iter:  63  21:52:32  -8.0   -5.8     -7.29867     1      1      
iter:  64  21:52:33  -8.0   -5.7     -7.29873     1      1      
iter:  65  21:52:33  -8.1   -5.7     -7.29875     1      1      
iter:  66  21:52:34  -8.2   -5.8     -7.29874     1      1      
iter:  67  21:52:35  -8.2   -5.8     -7.29870     1      1      
iter:  68  21:52:36  -8.3   -6.0     -7.29872     1      1      
iter:  69  21:52:37  -8.4   -6.0     -7.29879     2      1      
iter:  70  21:52:38  -8.4   -5.6     -7.29869     1      1      
iter:  71  21:52:39  -8.5   -5.9     -7.29869     1      1      
iter:  72  21:52:40  -8.6   -6.1     -7.29871     1      1      
iter:  73  21:52:41  -8.6   -6.3     -7.29871     1      1      
iter:  74  21:52:42  -8.7   -6.4     -7.29872     1      1      
iter:  75  21:52:43  -8.8   -6.8     -7.29872     1      1      
iter:  76  21:52:43  -8.9   -7.3     -7.29871     1      1      
iter:  77  21:52:44  -8.9   -7.3     -7.29871     1      1      
iter:  78  21:52:45  -9.0   -7.0     -7.29871     1      1      
iter:  79  21:52:46  -9.0   -6.9     -7.29871     1      1      
------------------------------------
Converged After 79 Iterations.

Energy Contributions Relative to Reference Atom:(reference = -41300.61049)
-------------------------
Kinetic:        +56.50721
Potential:      -45.35476
External:        +0.00000
XC:             -18.27751
Entropy (-ST):   -0.07419
Local:           -0.13656
-------------------------
Free Energy:     -7.33581
Zero Kelvin:     -7.29871

Fermi Level: 19.06401


Total Charge:  0.000000 electrons
Dipole Moment: [-1.11071678 -1.11071678 -1.11071678]

Memory estimate
---------------
Calculator  147.37 MiB
    Initial overhead  143.31 MiB
    Density  1.67 MiB
        Arrays  0.10 MiB
        Localized functions  1.26 MiB
        Mixer  0.02 MiB
        Interpolator  0.28 MiB
    Hamiltonian  0.70 MiB
        Arrays  0.07 MiB
        Restrictor  0.16 MiB
        XC 3D grid  0.03 MiB
        Poisson  0.35 MiB
        vbar  0.09 MiB
    Wavefunctions  1.70 MiB
        Arrays psit_nG  1.17 MiB
        Eigensolver  0.16 MiB
        Projectors  0.21 MiB
        Overlap op  0.12 MiB
        Kinetic operator  0.04 MiB

Positions:
  0 Ni    0.0000    0.0000    0.0000

                
                
                
                
       Ni       
                
                
                

Unit Cell:
           Periodic     X           Y           Z      Points  Spacing
  --------------------------------------------------------------------
  1. axis:    yes    0.000000    1.575000    1.575000     8     0.2784
  2. axis:    yes    1.575000    0.000000    1.575000     8     0.2784
  3. axis:    yes    1.575000    1.575000    0.000000     8     0.2784

Ni-setup:
  name   : Nickel
  id     : 6dab36a46a24a91e25ff4f0c3a2da03f
  Z      : 28
  valence: 10
  core   : 18
  charge : 0.0
  file   : /usr/share/gpaw-setups/Ni.LDA.gz
  cutoffs: 0.95(comp), 1.77(filt), 2.43(core), lmax=2
  valence states:
            energy   radius
    4s(2)   -5.858   0.953
    4p(0)   -1.338   1.005
    3d(8)   -9.141   0.953
    *s      21.353   0.953
    *p      25.873   1.005
    *d      18.071   0.953

Using partial waves for Ni as LCAO basis

Using the LDA Exchange-Correlation Functional.
Spin-Paired Calculation
Total Charge:      0.000000
Fermi Temperature: 0.100000
Mode: Finite-difference
Eigensolver:       rmm-diis
                   (3 nearest neighbors central finite-difference stencil)
Poisson Solver:    Jacobi 
                   (3 nearest neighbors central finite-difference stencil)
Interpolation:     6th Order
Reference Energy:  -41300.610487

Total number of cores used: 1
Diagonalizer layout: Serial LAPACK
Orthonormalizer layout: Serial LAPACK

Symmetries present: 48
10 k-points in the Irreducible Part of the Brillouin Zone (total: 64)
Linear Mixing Parameter:           0.1
Pulay Mixing with 3 Old Densities
Damping of Long Wave Oscillations: 50

Convergence Criteria:
Total Energy Change per Atom:           0.001 eV / atom
Integral of Absolute Density Change:    0.0001 electrons
Integral of Absolute Eigenstate Change: 1e-09
Number of Bands in Calculation:         15
Bands to Converge:                      Occupied States Only
Number of Valence Electrons:            10
                     log10-error:    Total        Iterations:
           Time      WFS    Density  Energy       Fermi  Poisson
iter:   1  21:52:56  +2.1            -7.83656     4      14     
iter:   2  21:52:56  -1.6            -8.65440     3             
iter:   3  21:52:57  -2.2            -8.75814     2             
iter:   4  21:52:58  -2.7   -1.9     -8.78148     3      5      
iter:   5  21:52:59  -2.0   -1.9     -8.82520     8      7      
iter:   6  21:53:00  -3.4   -1.9     -8.83922     2      3      
iter:   7  21:53:01  -3.3   -1.9     -8.81887     4      5      
iter:   8  21:53:01  -3.4   -2.0     -8.80946     3      6      
iter:   9  21:53:02  -2.9   -2.1     -8.80448     4      7      
iter:  10  21:53:03  -3.9   -2.7     -8.80663     2      4      
iter:  11  21:53:04  -4.2   -2.7     -8.80739     2      4      
iter:  12  21:53:05  -4.2   -2.9     -8.80825     2      5      
iter:  13  21:53:06  -4.5   -3.1     -8.80802     3      4      
iter:  14  21:53:06  -4.6   -3.3     -8.80818     2      4      
iter:  15  21:53:07  -4.8   -3.6     -8.80818     2      2      
iter:  16  21:53:08  -4.9   -3.7     -8.80872     2      3      
iter:  17  21:53:09  -4.9   -4.2     -8.80853     2      2      
iter:  18  21:53:10  -5.0   -4.4     -8.80843     2      1      
iter:  19  21:53:11  -5.1   -4.4     -8.80867     2      1      
iter:  20  21:53:11  -5.2   -4.6     -8.80872     2      1      
iter:  21  21:53:12  -5.3   -4.8     -8.80882     1      1      
iter:  22  21:53:13  -5.4   -4.7     -8.80886     2      1      
iter:  23  21:53:14  -5.5   -4.7     -8.80882     2      1      
iter:  24  21:53:15  -5.5   -4.6     -8.80903     2      1      
iter:  25  21:53:16  -5.6   -4.7     -8.80890     1      1      
iter:  26  21:53:16  -5.7   -4.7     -8.80905     2      2      
iter:  27  21:53:17  -5.8   -5.1     -8.80892     2      1      
iter:  28  21:53:18  -5.9   -5.0     -8.80911     2      1      
iter:  29  21:53:19  -6.0   -5.1     -8.80905     2      1      
iter:  30  21:53:20  -6.0   -5.1     -8.80905     1      1      
iter:  31  21:53:20  -6.1   -5.2     -8.80904     1      1      
iter:  32  21:53:21  -6.2   -5.2     -8.80918     2      1      
iter:  33  21:53:22  -6.3   -5.3     -8.80898     2      1      
iter:  34  21:53:23  -6.4   -5.4     -8.80922     1      1      
iter:  35  21:53:24  -6.4   -5.4     -8.80903     2      1      
iter:  36  21:53:25  -6.5   -5.8     -8.80895     1      1      
iter:  37  21:53:25  -6.6   -6.0     -8.80901     1      1      
iter:  38  21:53:26  -6.7   -5.9     -8.80900     1      1      
iter:  39  21:53:27  -6.8   -5.7     -8.80897     1      1      
iter:  40  21:53:28  -6.8   -5.5     -8.80899     1      1      
iter:  41  21:53:29  -6.9   -5.4     -8.80902     1      1      
iter:  42  21:53:30  -7.0   -5.4     -8.80907     1      1      
iter:  43  21:53:30  -7.1   -5.5     -8.80899     1      1      
iter:  44  21:53:31  -7.1   -5.3     -8.80911     1      1      
iter:  45  21:53:32  -7.2   -5.7     -8.80908     2      1      
iter:  46  21:53:33  -7.3   -5.7     -8.80901     1      1      
iter:  47  21:53:34  -7.4   -5.8     -8.80900     1      1      
iter:  48  21:53:35  -7.4   -5.8     -8.80902     1      1      
iter:  49  21:53:35  -7.5   -5.8     -8.80921     2      1      
iter:  50  21:53:36  -7.6   -5.2     -8.80872     2      1      
iter:  51  21:53:37  -7.7   -5.4     -8.80907     1      1      
iter:  52  21:53:38  -7.7   -5.9     -8.80903     1      1      
iter:  53  21:53:39  -7.8   -6.1     -8.80902     1      1      
iter:  54  21:53:40  -7.9   -6.2     -8.80901     1      1      
iter:  55  21:53:40  -8.0   -6.2     -8.80901     1      1      
iter:  56  21:53:41  -8.0   -6.6     -8.80900     1      1      
iter:  57  21:53:42  -8.1   -6.8     -8.80900     1      1      
iter:  58  21:53:43  -8.2   -7.2     -8.80900     1      1      
iter:  59  21:53:44  -8.2   -6.7     -8.80900     1      1      
iter:  60  21:53:45  -8.3   -6.6     -8.80900     1      1      
iter:  61  21:53:45  -8.4   -6.4     -8.80900     1      1      
iter:  62  21:53:46  -8.4   -6.3     -8.80900     1      1      
iter:  63  21:53:47  -8.5   -6.2     -8.80900     1      1      
iter:  64  21:53:48  -8.6   -6.2     -8.80899     1      1      
iter:  65  21:53:49  -8.7   -6.0     -8.80903     1      1      
iter:  66  21:53:50  -8.7   -6.8     -8.80900     1      1      
iter:  67  21:53:50  -8.8   -6.6     -8.80901     1      1      
iter:  68  21:53:51  -8.9   -6.6     -8.80900     1      1      
iter:  69  21:53:52  -8.9   -6.6     -8.80900     1      1      
iter:  70  21:53:53  -9.0   -6.4     -8.80900     1      1      
------------------------------------
Converged After 70 Iterations.

Energy Contributions Relative to Reference Atom:(reference = -41300.61049)
-------------------------
Kinetic:        +34.96234
Potential:      -28.42811
External:        +0.00000
XC:             -15.13888
Entropy (-ST):   -0.08144
Local:           -0.16362
-------------------------
Free Energy:     -8.84972
Zero Kelvin:     -8.80900

Fermi Level: 15.65312


Total Charge:  0.000000 electrons
Dipole Moment: [-1.23329822 -1.23329822 -1.23329822]

Memory estimate
---------------
Calculator  157.31 MiB
    Initial overhead  153.45 MiB
    Density  1.50 MiB
        Arrays  0.10 MiB
        Localized functions  1.09 MiB
        Mixer  0.02 MiB
        Interpolator  0.28 MiB
    Hamiltonian  0.68 MiB
        Arrays  0.07 MiB
        Restrictor  0.16 MiB
        XC 3D grid  0.03 MiB
        Poisson  0.35 MiB
        vbar  0.08 MiB
    Wavefunctions  1.67 MiB
        Arrays psit_nG  1.17 MiB
        Eigensolver  0.16 MiB
        Projectors  0.18 MiB
        Overlap op  0.12 MiB
        Kinetic operator  0.04 MiB

Positions:
  0 Ni    0.0000    0.0000    0.0000

                
                
                
                
       Ni       
                
                
                

Unit Cell:
           Periodic     X           Y           Z      Points  Spacing
  --------------------------------------------------------------------
  1. axis:    yes    0.000000    1.650000    1.650000     8     0.2917
  2. axis:    yes    1.650000    0.000000    1.650000     8     0.2917
  3. axis:    yes    1.650000    1.650000    0.000000     8     0.2917

Ni-setup:
  name   : Nickel
  id     : 6dab36a46a24a91e25ff4f0c3a2da03f
  Z      : 28
  valence: 10
  core   : 18
  charge : 0.0
  file   : /usr/share/gpaw-setups/Ni.LDA.gz
  cutoffs: 0.95(comp), 1.77(filt), 2.43(core), lmax=2
  valence states:
            energy   radius
    4s(2)   -5.858   0.953
    4p(0)   -1.338   1.005
    3d(8)   -9.141   0.953
    *s      21.353   0.953
    *p      25.873   1.005
    *d      18.071   0.953

Using partial waves for Ni as LCAO basis

Using the LDA Exchange-Correlation Functional.
Spin-Paired Calculation
Total Charge:      0.000000
Fermi Temperature: 0.100000
Mode: Finite-difference
Eigensolver:       rmm-diis
                   (3 nearest neighbors central finite-difference stencil)
Poisson Solver:    Jacobi 
                   (3 nearest neighbors central finite-difference stencil)
Interpolation:     6th Order
Reference Energy:  -41300.610487

Total number of cores used: 1
Diagonalizer layout: Serial LAPACK
Orthonormalizer layout: Serial LAPACK

Symmetries present: 48
10 k-points in the Irreducible Part of the Brillouin Zone (total: 64)
Linear Mixing Parameter:           0.1
Pulay Mixing with 3 Old Densities
Damping of Long Wave Oscillations: 50

Convergence Criteria:
Total Energy Change per Atom:           0.001 eV / atom
Integral of Absolute Density Change:    0.0001 electrons
Integral of Absolute Eigenstate Change: 1e-09
Number of Bands in Calculation:         15
Bands to Converge:                      Occupied States Only
Number of Valence Electrons:            10
                     log10-error:    Total        Iterations:
           Time      WFS    Density  Energy       Fermi  Poisson
iter:   1  21:54:01  +2.0            -8.72249     3      14     
iter:   2  21:54:01  -1.7            -9.52135     3             
iter:   3  21:54:02  -2.4            -9.61479     2             
iter:   4  21:54:03  -2.9   -1.9     -9.63980     2      5      
iter:   5  21:54:04  -3.0   -2.0     -9.66373     4      6      
iter:   6  21:54:04  -3.5   -2.2     -9.67199     3      6      
iter:   7  21:54:05  -3.3   -2.3     -9.66744     3      6      
iter:   8  21:54:06  -4.1   -3.2     -9.66857     2      4      
iter:   9  21:54:07  -4.3   -3.2     -9.66915     2      3      
iter:  10  21:54:07  -4.2   -3.2     -9.67050     3      4      
iter:  11  21:54:08  -4.4   -2.8     -9.66969     3      5      
iter:  12  21:54:09  -4.6   -3.2     -9.66967     2      4      
iter:  13  21:54:10  -4.9   -4.4     -9.66996     1      1      
iter:  14  21:54:11  -4.9   -4.5     -9.67000     1      1      
iter:  15  21:54:11  -5.1   -4.4     -9.67004     1      1      
iter:  16  21:54:12  -5.2   -4.4     -9.67035     2      1      
iter:  17  21:54:13  -5.3   -4.5     -9.67034     2      2      
iter:  18  21:54:14  -5.4   -4.7     -9.67029     1      1      
iter:  19  21:54:14  -5.5   -4.7     -9.67029     1      1      
iter:  20  21:54:15  -5.6   -4.8     -9.67033     1      1      
iter:  21  21:54:16  -5.7   -4.8     -9.67035     1      1      
iter:  22  21:54:17  -5.7   -4.9     -9.67038     1      1      
iter:  23  21:54:17  -5.8   -4.8     -9.67031     1      1      
iter:  24  21:54:18  -5.9   -4.8     -9.67036     1      1      
iter:  25  21:54:19  -6.0   -4.7     -9.67039     1      1      
iter:  26  21:54:20  -6.1   -4.7     -9.67044     1      1      
iter:  27  21:54:21  -6.2   -4.7     -9.67038     1      1      
iter:  28  21:54:21  -6.3   -4.6     -9.67051     2      1      
iter:  29  21:54:22  -6.4   -4.7     -9.67056     1      1      
iter:  30  21:54:23  -6.4   -4.7     -9.67068     1      1      
iter:  31  21:54:24  -6.5   -4.8     -9.67057     2      2      
iter:  32  21:54:24  -6.6   -5.1     -9.67040     1      1      
iter:  33  21:54:25  -6.7   -5.1     -9.67040     1      1      
iter:  34  21:54:26  -6.8   -5.1     -9.67042     1      1      
iter:  35  21:54:27  -6.9   -5.2     -9.67045     1      1      
iter:  36  21:54:28  -6.9   -5.3     -9.67050     1      1      
iter:  37  21:54:28  -7.0   -5.4     -9.67053     1      1      
iter:  38  21:54:29  -7.1   -5.5     -9.67041     1      1      
iter:  39  21:54:30  -7.2   -5.5     -9.67046     1      1      
iter:  40  21:54:31  -7.3   -5.8     -9.67045     1      1      
iter:  41  21:54:31  -7.4   -6.3     -9.67043     1      1      
iter:  42  21:54:32  -7.4   -6.3     -9.67044     1      1      
iter:  43  21:54:33  -7.5   -6.1     -9.67044     1      1      
iter:  44  21:54:34  -7.6   -6.0     -9.67043     1      1      
iter:  45  21:54:35  -7.7   -5.8     -9.67045     1      1      
iter:  46  21:54:35  -7.8   -5.9     -9.67044     1      1      
iter:  47  21:54:36  -7.8   -5.8     -9.67039     1      1      
iter:  48  21:54:37  -7.9   -5.5     -9.67051     1      1      
iter:  49  21:54:38  -8.0   -5.8     -9.67048     1      1      
iter:  50  21:54:38  -8.1   -6.0     -9.67046     1      1      
iter:  51  21:54:39  -8.2   -6.1     -9.67046     1      1      
iter:  52  21:54:40  -8.2   -6.1     -9.67043     1      1      
iter:  53  21:54:41  -8.3   -6.2     -9.67045     1      1      
iter:  54  21:54:41  -8.4   -6.2     -9.67045     1      1      
iter:  55  21:54:42  -8.5   -6.2     -9.67047     1      1      
iter:  56  21:54:43  -8.6   -6.0     -9.67041     1      1      
iter:  57  21:54:44  -8.7   -6.2     -9.67045     1      1      
iter:  58  21:54:44  -8.7   -6.5     -9.67044     1      1      
iter:  59  21:54:45  -8.8   -6.6     -9.67046     1      1      
iter:  60  21:54:46  -8.9   -6.4     -9.67043     1      1      
iter:  61  21:54:47  -9.0   -6.7     -9.67044     1      1      
iter:  62  21:54:47  -9.1   -6.6     -9.67044     1      1      
------------------------------------
Converged After 62 Iterations.

Energy Contributions Relative to Reference Atom:(reference = -41300.61049)
-------------------------
Kinetic:        +21.25704
Potential:      -17.82865
External:        +0.00000
XC:             -12.85401
Entropy (-ST):   -0.08893
Local:           -0.20035
-------------------------
Free Energy:     -9.71491
Zero Kelvin:     -9.67044

Fermi Level: 12.85357


Total Charge:  -0.000000 electrons
Dipole Moment: [-1.35898965 -1.35898965 -1.35898965]

Memory estimate
---------------
Calculator  169.27 MiB
    Initial overhead  165.58 MiB
    Density  1.37 MiB
        Arrays  0.10 MiB
        Localized functions  0.96 MiB
        Mixer  0.02 MiB
        Interpolator  0.28 MiB
    Hamiltonian  0.67 MiB
        Arrays  0.07 MiB
        Restrictor  0.16 MiB
        XC 3D grid  0.03 MiB
        Poisson  0.35 MiB
        vbar  0.07 MiB
    Wavefunctions  1.65 MiB
        Arrays psit_nG  1.17 MiB
        Eigensolver  0.16 MiB
        Projectors  0.16 MiB
        Overlap op  0.12 MiB
        Kinetic operator  0.04 MiB

Positions:
  0 Ni    0.0000    0.0000    0.0000

                
                
                
                
       Ni       
                
                
                

Unit Cell:
           Periodic     X           Y           Z      Points  Spacing
  --------------------------------------------------------------------
  1. axis:    yes    0.000000    1.725000    1.725000     8     0.3049
  2. axis:    yes    1.725000    0.000000    1.725000     8     0.3049
  3. axis:    yes    1.725000    1.725000    0.000000     8     0.3049

Ni-setup:
  name   : Nickel
  id     : 6dab36a46a24a91e25ff4f0c3a2da03f
  Z      : 28
  valence: 10
  core   : 18
  charge : 0.0
  file   : /usr/share/gpaw-setups/Ni.LDA.gz
  cutoffs: 0.95(comp), 1.77(filt), 2.43(core), lmax=2
  valence states:
            energy   radius
    4s(2)   -5.858   0.953
    4p(0)   -1.338   1.005
    3d(8)   -9.141   0.953
    *s      21.353   0.953
    *p      25.873   1.005
    *d      18.071   0.953

Using partial waves for Ni as LCAO basis

Using the LDA Exchange-Correlation Functional.
Spin-Paired Calculation
Total Charge:      0.000000
Fermi Temperature: 0.100000
Mode: Finite-difference
Eigensolver:       rmm-diis
                   (3 nearest neighbors central finite-difference stencil)
Poisson Solver:    Jacobi 
                   (3 nearest neighbors central finite-difference stencil)
Interpolation:     6th Order
Reference Energy:  -41300.610487

Total number of cores used: 1
Diagonalizer layout: Serial LAPACK
Orthonormalizer layout: Serial LAPACK

Symmetries present: 48
10 k-points in the Irreducible Part of the Brillouin Zone (total: 64)
Linear Mixing Parameter:           0.1
Pulay Mixing with 3 Old Densities
Damping of Long Wave Oscillations: 50

Convergence Criteria:
Total Energy Change per Atom:           0.001 eV / atom
Integral of Absolute Density Change:    0.0001 electrons
Integral of Absolute Eigenstate Change: 1e-09
Number of Bands in Calculation:         15
Bands to Converge:                      Occupied States Only
Number of Valence Electrons:            10
                     log10-error:    Total        Iterations:
           Time      WFS    Density  Energy       Fermi  Poisson
iter:   1  21:54:54  +1.9            -9.30390     3      14     
iter:   2  21:54:55  -1.8            -10.08982    3             
iter:   3  21:54:55  -2.6            -10.17053    2             
iter:   4  21:54:56  -2.9   -1.8     -10.18720    3      6      
iter:   5  21:54:57  -3.2   -1.9     -10.19912    3      7      
iter:   6  21:54:58  -3.5   -2.1     -10.21251    3      7      
iter:   7  21:54:59  -3.7   -2.5     -10.21369    3      6      
iter:   8  21:55:00  -4.2   -3.0     -10.21471    3      3      
iter:   9  21:55:00  -4.3   -3.1     -10.21491    3      4      
iter:  10  21:55:01  -4.4   -3.1     -10.21484    3      4      
iter:  11  21:55:02  -4.8   -3.2     -10.21522    3      3      
iter:  12  21:55:03  -5.0   -3.4     -10.21534    2      2      
iter:  13  21:55:03  -5.1   -3.5     -10.21539    2      3      
iter:  14  21:55:04  -5.2   -3.8     -10.21571    2      2      
iter:  15  21:55:05  -5.3   -3.8     -10.21583    2      3      
iter:  16  21:55:06  -5.4   -4.6     -10.21579    2      2      
iter:  17  21:55:06  -5.5   -4.9     -10.21575    2      1      
iter:  18  21:55:07  -5.6   -4.9     -10.21576    1      1      
iter:  19  21:55:08  -5.7   -5.0     -10.21576    1      1      
iter:  20  21:55:09  -5.8   -5.1     -10.21584    1      1      
iter:  21  21:55:09  -5.9   -5.2     -10.21594    2      1      
iter:  22  21:55:10  -6.0   -5.3     -10.21582    2      1      
iter:  23  21:55:11  -6.1   -5.3     -10.21576    1      1      
iter:  24  21:55:12  -6.2   -5.2     -10.21581    1      1      
iter:  25  21:55:12  -6.3   -5.2     -10.21579    1      1      
iter:  26  21:55:13  -6.3   -5.2     -10.21575    1      1      
iter:  27  21:55:14  -6.4   -5.2     -10.21577    2      1      
iter:  28  21:55:14  -6.5   -5.0     -10.21577    1      1      
iter:  29  21:55:15  -6.6   -5.0     -10.21587    1      1      
iter:  30  21:55:16  -6.7   -5.0     -10.21570    1      1      
iter:  31  21:55:17  -6.8   -4.9     -10.21602    2      1      
iter:  32  21:55:17  -6.9   -5.0     -10.21597    1      1      
iter:  33  21:55:18  -7.0   -5.0     -10.21582    1      1      
iter:  34  21:55:19  -7.1   -5.1     -10.21584    1      1      
iter:  35  21:55:20  -7.1   -5.1     -10.21596    2      1      
iter:  36  21:55:20  -7.2   -5.3     -10.21585    1      1      
iter:  37  21:55:21  -7.3   -5.4     -10.21582    1      1      
iter:  38  21:55:22  -7.4   -5.7     -10.21583    1      1      
iter:  39  21:55:23  -7.5   -5.9     -10.21582    1      1      
iter:  40  21:55:23  -7.6   -6.1     -10.21581    1      1      
iter:  41  21:55:24  -7.7   -6.1     -10.21581    1      1      
iter:  42  21:55:25  -7.8   -6.0     -10.21581    1      1      
iter:  43  21:55:26  -7.8   -5.9     -10.21581    1      1      
iter:  44  21:55:27  -7.9   -5.9     -10.21581    1      1      
iter:  45  21:55:28  -8.0   -5.8     -10.21581    1      1      
iter:  46  21:55:28  -8.1   -5.9     -10.21581    1      1      
iter:  47  21:55:29  -8.2   -5.8     -10.21582    1      1      
iter:  48  21:55:30  -8.3   -5.8     -10.21579    1      1      
iter:  49  21:55:31  -8.3   -5.7     -10.21585    1      1      
iter:  50  21:55:31  -8.4   -5.7     -10.21582    1      1      
iter:  51  21:55:32  -8.5   -5.8     -10.21581    1      1      
iter:  52  21:55:33  -8.6   -5.8     -10.21581    1      1      
iter:  53  21:55:34  -8.7   -5.7     -10.21583    1      1      
iter:  54  21:55:35  -8.8   -5.8     -10.21584    1      1      
iter:  55  21:55:36  -8.8   -5.8     -10.21582    1      1      
iter:  56  21:55:36  -8.9   -5.9     -10.21580    1      1      
iter:  57  21:55:37  -9.0   -6.1     -10.21582    1      1      
------------------------------------
Converged After 57 Iterations.

Energy Contributions Relative to Reference Atom:(reference = -41300.61049)
-------------------------
Kinetic:        +12.42684
Potential:      -11.15876
External:        +0.00000
XC:             -11.20048
Entropy (-ST):   -0.09731
Local:           -0.23476
-------------------------
Free Energy:    -10.26448
Zero Kelvin:    -10.21582

Fermi Level: 10.53109


Total Charge:  -0.000000 electrons
Dipole Moment: [-1.48767933 -1.48767933 -1.48767933]

Memory estimate
---------------
Calculator  179.82 MiB
    Initial overhead  168.94 MiB
    Density  3.57 MiB
        Arrays  0.34 MiB
        Localized functions  2.51 MiB
        Mixer  0.08 MiB
        Interpolator  0.64 MiB
    Hamiltonian  1.92 MiB
        Arrays  0.22 MiB
        Restrictor  0.37 MiB
        XC 3D grid  0.11 MiB
        Poisson  1.03 MiB
        vbar  0.19 MiB
    Wavefunctions  5.39 MiB
        Arrays psit_nG  3.96 MiB
        Eigensolver  0.53 MiB
        Projectors  0.42 MiB
        Overlap op  0.40 MiB
        Kinetic operator  0.09 MiB

Positions:
  0 Ni    0.0000    0.0000    0.0000

                
                
                
                
       Ni       
                
                
                

Unit Cell:
           Periodic     X           Y           Z      Points  Spacing
  --------------------------------------------------------------------
  1. axis:    yes    0.000000    1.875000    1.875000    12     0.2210
  2. axis:    yes    1.875000    0.000000    1.875000    12     0.2210
  3. axis:    yes    1.875000    1.875000    0.000000    12     0.2210

Ni-setup:
  name   : Nickel
  id     : 6dab36a46a24a91e25ff4f0c3a2da03f
  Z      : 28
  valence: 10
  core   : 18
  charge : 0.0
  file   : /usr/share/gpaw-setups/Ni.LDA.gz
  cutoffs: 0.95(comp), 1.77(filt), 2.43(core), lmax=2
  valence states:
            energy   radius
    4s(2)   -5.858   0.953
    4p(0)   -1.338   1.005
    3d(8)   -9.141   0.953
    *s      21.353   0.953
    *p      25.873   1.005
    *d      18.071   0.953

Using partial waves for Ni as LCAO basis

Using the LDA Exchange-Correlation Functional.
Spin-Paired Calculation
Total Charge:      0.000000
Fermi Temperature: 0.100000
Mode: Finite-difference
Eigensolver:       rmm-diis
                   (3 nearest neighbors central finite-difference stencil)
Poisson Solver:    Jacobi 
                   (3 nearest neighbors central finite-difference stencil)
Interpolation:     6th Order
Reference Energy:  -41300.610487

Total number of cores used: 1
Diagonalizer layout: Serial LAPACK
Orthonormalizer layout: Serial LAPACK

Symmetries present: 48
10 k-points in the Irreducible Part of the Brillouin Zone (total: 64)
Linear Mixing Parameter:           0.1
Pulay Mixing with 3 Old Densities
Damping of Long Wave Oscillations: 50

Convergence Criteria:
Total Energy Change per Atom:           0.001 eV / atom
Integral of Absolute Density Change:    0.0001 electrons
Integral of Absolute Eigenstate Change: 1e-09
Number of Bands in Calculation:         15
Bands to Converge:                      Occupied States Only
Number of Valence Electrons:            10
                     log10-error:    Total        Iterations:
           Time      WFS    Density  Energy       Fermi  Poisson
iter:   1  21:55:48  +2.6            -7.63095     4      13     
iter:   2  21:55:50  -1.4            -8.18134     3             
iter:   3  21:55:51  -2.2            -8.24147     2             
iter:   4  21:55:53  -2.1   -1.6     -8.20986     5      6      
iter:   5  21:55:55  -2.2   -1.8     -8.20233     5      7      
iter:   6  21:55:56  -2.8   -2.2     -8.21744     3      7      
iter:   7  21:55:58  -3.1   -2.4     -8.22261     3      5      
iter:   8  21:56:00  -3.5   -2.9     -8.22412     3      3      
iter:   9  21:56:01  -3.8   -3.0     -8.22482     3      4      
iter:  10  21:56:03  -4.0   -3.4     -8.22527     3      4      
iter:  11  21:56:05  -4.2   -3.9     -8.22554     2      2      
iter:  12  21:56:06  -4.3   -4.0     -8.22591     2      2      
iter:  13  21:56:08  -4.6   -4.0     -8.22583     2      1      
iter:  14  21:56:10  -4.7   -4.0     -8.22627     2      2      
iter:  15  21:56:11  -4.9   -3.9     -8.22611     2      4      
iter:  16  21:56:13  -5.1   -4.0     -8.22625     2      3      
iter:  17  21:56:14  -5.2   -3.9     -8.22621     2      2      
iter:  18  21:56:16  -5.5   -3.9     -8.22624     2      2      
iter:  19  21:56:17  -5.1   -4.0     -8.22635     2      2      
iter:  20  21:56:19  -5.8   -4.2     -8.22643     2      1      
iter:  21  21:56:20  -5.7   -4.3     -8.22634     2      2      
iter:  22  21:56:22  -5.9   -4.3     -8.22601     2      2      
iter:  23  21:56:24  -6.0   -4.0     -8.22643     2      2      
iter:  24  21:56:25  -6.2   -4.6     -8.22630     2      1      
iter:  25  21:56:27  -6.3   -4.8     -8.22607     2      1      
iter:  26  21:56:28  -6.2   -5.2     -8.22621     2      1      
iter:  27  21:56:30  -6.3   -5.2     -8.22625     2      1      
iter:  28  21:56:31  -6.1   -5.3     -8.22624     2      1      
iter:  29  21:56:33  -6.5   -5.3     -8.22628     2      1      
iter:  30  21:56:34  -6.5   -5.4     -8.22632     2      1      
iter:  31  21:56:36  -7.0   -5.5     -8.22628     2      1      
iter:  32  21:56:38  -7.0   -5.7     -8.22629     2      1      
iter:  33  21:56:39  -6.6   -5.6     -8.22628     1      1      
iter:  34  21:56:41  -7.1   -5.6     -8.22627     2      1      
iter:  35  21:56:43  -7.4   -5.8     -8.22627     2      1      
iter:  36  21:56:44  -7.6   -5.6     -8.22630     2      1      
iter:  37  21:56:46  -7.8   -5.8     -8.22629     1      1      
iter:  38  21:56:47  -7.6   -6.0     -8.22628     1      1      
iter:  39  21:56:49  -7.7   -5.9     -8.22629     1      1      
iter:  40  21:56:50  -7.7   -6.0     -8.22628     1      1      
iter:  41  21:56:52  -8.1   -6.0     -8.22629     1      1      
iter:  42  21:56:54  -8.2   -6.1     -8.22628     1      1      
iter:  43  21:56:55  -8.0   -6.1     -8.22628     1      1      
iter:  44  21:56:57  -8.3   -6.1     -8.22628     1      1      
iter:  45  21:56:58  -8.4   -6.1     -8.22628     1      1      
iter:  46  21:57:00  -8.2   -6.1     -8.22628     1      1      
iter:  47  21:57:01  -8.9   -6.1     -8.22630     2      1      
iter:  48  21:57:03  -9.0   -6.3     -8.22628     1      1      
iter:  49  21:57:04  -9.0   -6.4     -8.22627     1      1      
iter:  50  21:57:06  -9.0   -6.5     -8.22628     1      1      
iter:  51  21:57:07  -8.8   -6.5     -8.22628     1      1      
iter:  52  21:57:09  -9.4   -6.6     -8.22628     1      1      
------------------------------------
Converged After 52 Iterations.

Energy Contributions Relative to Reference Atom:(reference = -41300.61049)
-------------------------
Kinetic:         +3.70294
Potential:       -3.03970
External:        +0.00000
XC:              -8.58533
Entropy (-ST):   -0.11349
Local:           -0.24745
-------------------------
Free Energy:     -8.28302
Zero Kelvin:     -8.22628

Fermi Level: 7.07345


Total Charge:  -0.000000 electrons
Dipole Moment: [-1.17655778 -1.17655778 -1.17655778]

Memory estimate
---------------
Calculator  205.34 MiB
    Initial overhead  201.48 MiB
    Density  1.50 MiB
        Arrays  0.10 MiB
        Localized functions  1.09 MiB
        Mixer  0.02 MiB
        Interpolator  0.28 MiB
    Hamiltonian  0.68 MiB
        Arrays  0.07 MiB
        Restrictor  0.16 MiB
        XC 3D grid  0.03 MiB
        Poisson  0.35 MiB
        vbar  0.08 MiB
    Wavefunctions  1.67 MiB
        Arrays psit_nG  1.17 MiB
        Eigensolver  0.16 MiB
        Projectors  0.18 MiB
        Overlap op  0.12 MiB
        Kinetic operator  0.04 MiB

Positions:
  0 Ni    0.0000    0.0000    0.0000

                
                
                
                
       Ni       
                
                
                

Unit Cell:
           Periodic     X           Y           Z      Points  Spacing
  --------------------------------------------------------------------
  1. axis:    yes    0.000000    1.650000    1.650000     8     0.2917
  2. axis:    yes    1.650000    0.000000    1.650000     8     0.2917
  3. axis:    yes    1.650000    1.650000    0.000000     8     0.2917

Ni-setup:
  name   : Nickel
  id     : 6dab36a46a24a91e25ff4f0c3a2da03f
  Z      : 28
  valence: 10
  core   : 18
  charge : 0.0
  file   : /usr/share/gpaw-setups/Ni.LDA.gz
  cutoffs: 0.95(comp), 1.77(filt), 2.43(core), lmax=2
  valence states:
            energy   radius
    4s(2)   -5.858   0.953
    4p(0)   -1.338   1.005
    3d(8)   -9.141   0.953
    *s      21.353   0.953
    *p      25.873   1.005
    *d      18.071   0.953

Using partial waves for Ni as LCAO basis

Using the LDA Exchange-Correlation Functional.
Spin-Paired Calculation
Total Charge:      0.000000
Fermi Temperature: 0.100000
Mode: Finite-difference
Eigensolver:       rmm-diis
                   (3 nearest neighbors central finite-difference stencil)
Poisson Solver:    Jacobi 
                   (3 nearest neighbors central finite-difference stencil)
Interpolation:     6th Order
Reference Energy:  -41300.610487

Total number of cores used: 1
Diagonalizer layout: Serial LAPACK
Orthonormalizer layout: Serial LAPACK

Symmetries present: 48
10 k-points in the Irreducible Part of the Brillouin Zone (total: 64)
Linear Mixing Parameter:           0.1
Pulay Mixing with 3 Old Densities
Damping of Long Wave Oscillations: 50

Convergence Criteria:
Total Energy Change per Atom:           0.001 eV / atom
Integral of Absolute Density Change:    0.0001 electrons
Integral of Absolute Eigenstate Change: 1e-09
Number of Bands in Calculation:         15
Bands to Converge:                      Occupied States Only
Number of Valence Electrons:            10
                     log10-error:    Total        Iterations:
           Time      WFS    Density  Energy       Fermi  Poisson
iter:   1  21:57:17  +2.0            -8.72249     3      14     
iter:   2  21:57:18  -1.7            -9.52135     3             
iter:   3  21:57:19  -2.4            -9.61479     2             
iter:   4  21:57:20  -2.9   -1.9     -9.63980     2      5      
iter:   5  21:57:21  -3.0   -2.0     -9.66373     4      6      
iter:   6  21:57:21  -3.5   -2.2     -9.67199     3      6      
iter:   7  21:57:22  -3.3   -2.3     -9.66744     3      6      
iter:   8  21:57:23  -4.1   -3.2     -9.66857     2      4      
iter:   9  21:57:24  -4.3   -3.2     -9.66915     2      3      
iter:  10  21:57:24  -4.2   -3.2     -9.67050     3      4      
iter:  11  21:57:25  -4.4   -2.8     -9.66969     3      5      
iter:  12  21:57:26  -4.6   -3.2     -9.66967     2      4      
iter:  13  21:57:27  -4.9   -4.4     -9.66996     1      1      
iter:  14  21:57:28  -4.9   -4.5     -9.67000     1      1      
iter:  15  21:57:28  -5.1   -4.4     -9.67004     1      1      
iter:  16  21:57:29  -5.2   -4.4     -9.67035     2      1      
iter:  17  21:57:30  -5.3   -4.5     -9.67034     2      2      
iter:  18  21:57:31  -5.4   -4.7     -9.67029     1      1      
iter:  19  21:57:31  -5.5   -4.7     -9.67029     1      1      
iter:  20  21:57:32  -5.6   -4.8     -9.67033     1      1      
iter:  21  21:57:33  -5.7   -4.8     -9.67035     1      1      
iter:  22  21:57:34  -5.7   -4.9     -9.67038     1      1      
iter:  23  21:57:34  -5.8   -4.8     -9.67031     1      1      
iter:  24  21:57:35  -5.9   -4.8     -9.67036     1      1      
iter:  25  21:57:36  -6.0   -4.7     -9.67039     1      1      
iter:  26  21:57:37  -6.1   -4.7     -9.67044     1      1      
iter:  27  21:57:37  -6.2   -4.7     -9.67038     1      1      
iter:  28  21:57:38  -6.3   -4.6     -9.67051     2      1      
iter:  29  21:57:39  -6.4   -4.7     -9.67056     1      1      
iter:  30  21:57:40  -6.4   -4.7     -9.67068     1      1      
iter:  31  21:57:40  -6.5   -4.8     -9.67057     2      2      
iter:  32  21:57:41  -6.6   -5.1     -9.67040     1      1      
iter:  33  21:57:42  -6.7   -5.1     -9.67040     1      1      
iter:  34  21:57:43  -6.8   -5.1     -9.67042     1      1      
iter:  35  21:57:43  -6.9   -5.2     -9.67045     1      1      
iter:  36  21:57:44  -6.9   -5.3     -9.67050     1      1      
iter:  37  21:57:45  -7.0   -5.4     -9.67053     1      1      
iter:  38  21:57:46  -7.1   -5.5     -9.67041     1      1      
iter:  39  21:57:46  -7.2   -5.5     -9.67046     1      1      
iter:  40  21:57:47  -7.3   -5.8     -9.67045     1      1      
iter:  41  21:57:48  -7.4   -6.3     -9.67043     1      1      
iter:  42  21:57:49  -7.4   -6.3     -9.67044     1      1      
iter:  43  21:57:49  -7.5   -6.1     -9.67044     1      1      
iter:  44  21:57:50  -7.6   -6.0     -9.67043     1      1      
iter:  45  21:57:51  -7.7   -5.8     -9.67045     1      1      
iter:  46  21:57:52  -7.8   -5.9     -9.67044     1      1      
iter:  47  21:57:52  -7.8   -5.8     -9.67039     1      1      
iter:  48  21:57:53  -7.9   -5.5     -9.67051     1      1      
iter:  49  21:57:54  -8.0   -5.8     -9.67048     1      1      
iter:  50  21:57:55  -8.1   -6.0     -9.67046     1      1      
iter:  51  21:57:55  -8.2   -6.1     -9.67046     1      1      
iter:  52  21:57:56  -8.2   -6.1     -9.67043     1      1      
iter:  53  21:57:57  -8.3   -6.2     -9.67045     1      1      
iter:  54  21:57:58  -8.4   -6.2     -9.67045     1      1      
iter:  55  21:57:58  -8.5   -6.2     -9.67047     1      1      
iter:  56  21:57:59  -8.6   -6.0     -9.67041     1      1      
iter:  57  21:58:00  -8.7   -6.2     -9.67045     1      1      
iter:  58  21:58:01  -8.7   -6.5     -9.67044     1      1      
iter:  59  21:58:01  -8.8   -6.6     -9.67045     1      1      
iter:  60  21:58:02  -8.9   -6.5     -9.67044     1      1      
iter:  61  21:58:03  -9.0   -6.7     -9.67044     1      1      
iter:  62  21:58:04  -9.1   -6.6     -9.67044     1      1      
------------------------------------
Converged After 62 Iterations.

Energy Contributions Relative to Reference Atom:(reference = -41300.61049)
-------------------------
Kinetic:        +21.25711
Potential:      -17.82871
External:        +0.00000
XC:             -12.85402
Entropy (-ST):   -0.08893
Local:           -0.20035
-------------------------
Free Energy:     -9.71490
Zero Kelvin:     -9.67044

Fermi Level: 12.85357


Total Charge:  -0.000000 electrons
Dipole Moment: [-1.35898953 -1.35898953 -1.35898953]

Memory estimate
---------------
Calculator  212.77 MiB
    Initial overhead  201.48 MiB
    Density  3.90 MiB
        Arrays  0.34 MiB
        Localized functions  2.84 MiB
        Mixer  0.08 MiB
        Interpolator  0.64 MiB
    Hamiltonian  1.94 MiB
        Arrays  0.22 MiB
        Restrictor  0.37 MiB
        XC 3D grid  0.11 MiB
        Poisson  1.03 MiB
        vbar  0.21 MiB
    Wavefunctions  5.45 MiB
        Arrays psit_nG  3.96 MiB
        Eigensolver  0.53 MiB
        Projectors  0.47 MiB
        Overlap op  0.40 MiB
        Kinetic operator  0.09 MiB

Positions:
  0 Ni    0.0000    0.0000    0.0000

                
                
                
                
       Ni       
                
                
                

Unit Cell:
           Periodic     X           Y           Z      Points  Spacing
  --------------------------------------------------------------------
  1. axis:    yes    0.000000    1.800000    1.800000    12     0.2121
  2. axis:    yes    1.800000    0.000000    1.800000    12     0.2121
  3. axis:    yes    1.800000    1.800000    0.000000    12     0.2121

Ni-setup:
  name   : Nickel
  id     : 6dab36a46a24a91e25ff4f0c3a2da03f
  Z      : 28
  valence: 10
  core   : 18
  charge : 0.0
  file   : /usr/share/gpaw-setups/Ni.LDA.gz
  cutoffs: 0.95(comp), 1.77(filt), 2.43(core), lmax=2
  valence states:
            energy   radius
    4s(2)   -5.858   0.953
    4p(0)   -1.338   1.005
    3d(8)   -9.141   0.953
    *s      21.353   0.953
    *p      25.873   1.005
    *d      18.071   0.953

Using partial waves for Ni as LCAO basis

Using the LDA Exchange-Correlation Functional.
Spin-Paired Calculation
Total Charge:      0.000000
Fermi Temperature: 0.100000
Mode: Finite-difference
Eigensolver:       rmm-diis
                   (3 nearest neighbors central finite-difference stencil)
Poisson Solver:    Jacobi 
                   (3 nearest neighbors central finite-difference stencil)
Interpolation:     6th Order
Reference Energy:  -41300.610487

Total number of cores used: 1
Diagonalizer layout: Serial LAPACK
Orthonormalizer layout: Serial LAPACK

Symmetries present: 48
10 k-points in the Irreducible Part of the Brillouin Zone (total: 64)
Linear Mixing Parameter:           0.1
Pulay Mixing with 3 Old Densities
Damping of Long Wave Oscillations: 50

Convergence Criteria:
Total Energy Change per Atom:           0.001 eV / atom
Integral of Absolute Density Change:    0.0001 electrons
Integral of Absolute Eigenstate Change: 1e-09
Number of Bands in Calculation:         15
Bands to Converge:                      Occupied States Only
Number of Valence Electrons:            10
                     log10-error:    Total        Iterations:
           Time      WFS    Density  Energy       Fermi  Poisson
iter:   1  21:58:17  +2.7            -7.68227     3      13     
iter:   2  21:58:18  -1.2            -8.33829     3             
iter:   3  21:58:20  -2.0            -8.42043     2             
iter:   4  21:58:21  -2.2   -1.8     -8.43465     4      6      
iter:   5  21:58:23  -2.5   -1.9     -8.44173     4      6      
iter:   6  21:58:25  -2.8   -2.2     -8.45539     3      7      
iter:   7  21:58:26  -3.0   -2.5     -8.45893     4      5      
iter:   8  21:58:28  -3.4   -2.9     -8.46098     3      3      
iter:   9  21:58:30  -3.7   -3.1     -8.46158     2      5      
iter:  10  21:58:32  -3.8   -3.5     -8.46255     2      3      
iter:  11  21:58:33  -4.1   -3.6     -8.46261     2      2      
iter:  12  21:58:36  -4.2   -3.6     -8.46298     2      3      
iter:  13  21:58:37  -4.4   -3.6     -8.46317     2      2      
iter:  14  21:58:39  -4.6   -3.6     -8.46325     2      3      
iter:  15  21:58:41  -4.9   -3.8     -8.46343     2      2      
iter:  16  21:58:44  -5.0   -3.9     -8.46342     2      3      
iter:  17  21:58:46  -5.2   -4.4     -8.46349     1      2      
iter:  18  21:58:48  -5.2   -4.8     -8.46338     2      1      
iter:  19  21:58:50  -5.3   -4.7     -8.46343     2      1      
iter:  20  21:58:51  -5.5   -4.6     -8.46343     2      1      
iter:  21  21:58:53  -5.8   -4.6     -8.46331     1      1      
iter:  22  21:58:55  -5.7   -4.6     -8.46341     2      2      
iter:  23  21:58:56  -6.0   -4.5     -8.46322     2      1      
iter:  24  21:58:58  -6.1   -4.7     -8.46338     2      1      
iter:  25  21:59:00  -6.2   -4.8     -8.46357     2      1      
iter:  26  21:59:02  -6.2   -5.0     -8.46345     2      1      
iter:  27  21:59:03  -6.3   -5.0     -8.46347     2      1      
iter:  28  21:59:05  -6.5   -5.1     -8.46346     2      1      
iter:  29  21:59:07  -6.7   -5.3     -8.46347     2      1      
iter:  30  21:59:08  -6.7   -5.4     -8.46346     1      1      
iter:  31  21:59:11  -6.7   -5.4     -8.46345     1      1      
iter:  32  21:59:12  -6.8   -5.4     -8.46346     1      1      
iter:  33  21:59:14  -7.1   -5.6     -8.46346     1      1      
iter:  34  21:59:17  -7.1   -5.6     -8.46345     1      1      
iter:  35  21:59:19  -7.3   -6.1     -8.46346     1      1      
iter:  36  21:59:21  -7.2   -6.2     -8.46345     1      1      
iter:  37  21:59:23  -7.5   -6.4     -8.46345     1      1      
iter:  38  21:59:25  -7.6   -6.4     -8.46346     1      1      
iter:  39  21:59:27  -7.6   -6.6     -8.46346     1      1      
iter:  40  21:59:30  -7.7   -6.3     -8.46346     1      1      
iter:  41  21:59:32  -7.8   -6.7     -8.46346     1      1      
iter:  42  21:59:34  -8.0   -6.4     -8.46346     1      1      
iter:  43  21:59:36  -8.1   -6.4     -8.46346     1      1      
iter:  44  21:59:38  -8.2   -6.4     -8.46346     1      1      
iter:  45  21:59:40  -8.3   -6.6     -8.46346     1      1      
iter:  46  21:59:42  -8.4   -6.6     -8.46345     1      1      
iter:  47  21:59:44  -8.3   -6.9     -8.46346     1      1      
iter:  48  21:59:47  -8.6   -6.9     -8.46346     1      1      
iter:  49  21:59:48  -8.7   -6.9     -8.46346     1      1      
iter:  50  21:59:51  -8.8   -6.9     -8.46346     1      1      
iter:  51  21:59:53  -8.9   -7.0     -8.46346     1      1      
iter:  52  21:59:55  -8.9   -7.0     -8.46346     1      1      
iter:  53  21:59:57  -9.0   -7.0     -8.46346     1      1      
------------------------------------
Converged After 53 Iterations.

Energy Contributions Relative to Reference Atom:(reference = -41300.61049)
-------------------------
Kinetic:         +6.37727
Potential:       -5.03184
External:        +0.00000
XC:              -9.51809
Entropy (-ST):   -0.10517
Local:           -0.23821
-------------------------
Free Energy:     -8.51604
Zero Kelvin:     -8.46346

Fermi Level: 8.68381


Total Charge:  0.000000 electrons
Dipole Moment: [-1.08425623 -1.08425623 -1.08425623]

Memory estimate
---------------
Calculator  205.26 MiB
    Initial overhead  201.48 MiB
    Density  1.43 MiB
        Arrays  0.10 MiB
        Localized functions  1.02 MiB
        Mixer  0.02 MiB
        Interpolator  0.28 MiB
    Hamiltonian  0.68 MiB
        Arrays  0.07 MiB
        Restrictor  0.16 MiB
        XC 3D grid  0.03 MiB
        Poisson  0.35 MiB
        vbar  0.08 MiB
    Wavefunctions  1.66 MiB
        Arrays psit_nG  1.17 MiB
        Eigensolver  0.16 MiB
        Projectors  0.17 MiB
        Overlap op  0.12 MiB
        Kinetic operator  0.04 MiB

Positions:
  0 Ni    0.0000    0.0000    0.0000

                
                
                
                
       Ni       
                
                
                

Unit Cell:
           Periodic     X           Y           Z      Points  Spacing
  --------------------------------------------------------------------
  1. axis:    yes    0.000000    1.687500    1.687500     8     0.2983
  2. axis:    yes    1.687500    0.000000    1.687500     8     0.2983
  3. axis:    yes    1.687500    1.687500    0.000000     8     0.2983

Ni-setup:
  name   : Nickel
  id     : 6dab36a46a24a91e25ff4f0c3a2da03f
  Z      : 28
  valence: 10
  core   : 18
  charge : 0.0
  file   : /usr/share/gpaw-setups/Ni.LDA.gz
  cutoffs: 0.95(comp), 1.77(filt), 2.43(core), lmax=2
  valence states:
            energy   radius
    4s(2)   -5.858   0.953
    4p(0)   -1.338   1.005
    3d(8)   -9.141   0.953
    *s      21.353   0.953
    *p      25.873   1.005
    *d      18.071   0.953

Using partial waves for Ni as LCAO basis

Using the LDA Exchange-Correlation Functional.
Spin-Paired Calculation
Total Charge:      0.000000
Fermi Temperature: 0.100000
Mode: Finite-difference
Eigensolver:       rmm-diis
                   (3 nearest neighbors central finite-difference stencil)
Poisson Solver:    Jacobi 
                   (3 nearest neighbors central finite-difference stencil)
Interpolation:     6th Order
Reference Energy:  -41300.610487

Total number of cores used: 1
Diagonalizer layout: Serial LAPACK
Orthonormalizer layout: Serial LAPACK

Symmetries present: 48
10 k-points in the Irreducible Part of the Brillouin Zone (total: 64)
Linear Mixing Parameter:           0.1
Pulay Mixing with 3 Old Densities
Damping of Long Wave Oscillations: 50

Convergence Criteria:
Total Energy Change per Atom:           0.001 eV / atom
Integral of Absolute Density Change:    0.0001 electrons
Integral of Absolute Eigenstate Change: 1e-09
Number of Bands in Calculation:         15
Bands to Converge:                      Occupied States Only
Number of Valence Electrons:            10
                     log10-error:    Total        Iterations:
           Time      WFS    Density  Energy       Fermi  Poisson
iter:   1  22:00:06  +1.9            -9.03825     3      14     
iter:   2  22:00:06  -1.8            -9.82958     3             
iter:   3  22:00:07  -2.5            -9.91702     2             
iter:   4  22:00:08  -3.0   -1.9     -9.94017     3      5      
iter:   5  22:00:09  -3.4   -2.0     -9.95705     2      6      
iter:   6  22:00:10  -3.7   -2.2     -9.96762     2      7      
iter:   7  22:00:10  -4.1   -3.0     -9.96931     3      4      
iter:   8  22:00:11  -4.3   -3.1     -9.96963     3      3      
iter:   9  22:00:12  -4.6   -3.3     -9.96977     2      3      
iter:  10  22:00:13  -4.7   -3.3     -9.97015     2      4      
iter:  11  22:00:14  -4.9   -3.4     -9.97021     1      3      
iter:  12  22:00:15  -5.0   -3.5     -9.97034     2      4      
iter:  13  22:00:15  -5.2   -3.7     -9.97062     2      4      
iter:  14  22:00:16  -5.2   -3.8     -9.97076     2      2      
iter:  15  22:00:17  -5.4   -4.1     -9.97073     2      2      
iter:  16  22:00:18  -5.5   -4.5     -9.97098     2      1      
iter:  17  22:00:19  -5.6   -4.7     -9.97095     2      1      
iter:  18  22:00:20  -5.7   -4.8     -9.97083     2      1      
iter:  19  22:00:21  -5.8   -4.8     -9.97081     2      1      
iter:  20  22:00:21  -5.9   -5.0     -9.97078     1      1      
iter:  21  22:00:22  -6.0   -5.0     -9.97083     2      1      
iter:  22  22:00:23  -6.0   -5.3     -9.97077     1      1      
iter:  23  22:00:24  -6.2   -5.3     -9.97077     1      1      
iter:  24  22:00:25  -6.2   -5.4     -9.97076     1      1      
iter:  25  22:00:26  -6.3   -5.5     -9.97079     1      1      
iter:  26  22:00:27  -6.4   -5.5     -9.97081     1      1      
iter:  27  22:00:27  -6.5   -5.4     -9.97077     1      1      
iter:  28  22:00:28  -6.6   -5.4     -9.97083     1      1      
iter:  29  22:00:29  -6.7   -5.3     -9.97078     1      1      
iter:  30  22:00:30  -6.7   -5.2     -9.97081     1      1      
iter:  31  22:00:31  -6.8   -5.1     -9.97088     2      1      
iter:  32  22:00:32  -6.9   -5.3     -9.97075     2      1      
iter:  33  22:00:33  -7.0   -5.1     -9.97097     2      1      
iter:  34  22:00:34  -7.1   -5.4     -9.97089     2      1      
iter:  35  22:00:34  -7.2   -5.3     -9.97087     1      1      
iter:  36  22:00:35  -7.2   -5.4     -9.97082     1      1      
iter:  37  22:00:36  -7.3   -5.3     -9.97084     1      1      
iter:  38  22:00:37  -7.4   -5.4     -9.97089     1      1      
iter:  39  22:00:38  -7.5   -5.4     -9.97083     1      1      
iter:  40  22:00:39  -7.6   -5.4     -9.97081     1      1      
iter:  41  22:00:40  -7.7   -5.4     -9.97081     1      1      
iter:  42  22:00:41  -7.7   -5.5     -9.97082     1      1      
iter:  43  22:00:42  -7.8   -5.7     -9.97082     1      1      
iter:  44  22:00:43  -7.9   -5.9     -9.97082     1      1      
iter:  45  22:00:43  -8.0   -5.9     -9.97081     1      1      
iter:  46  22:00:44  -8.1   -5.8     -9.97085     1      1      
iter:  47  22:00:45  -8.2   -6.1     -9.97083     1      1      
iter:  48  22:00:46  -8.2   -6.1     -9.97083     1      1      
iter:  49  22:00:47  -8.3   -6.2     -9.97084     1      1      
iter:  50  22:00:48  -8.4   -6.2     -9.97080     1      1      
iter:  51  22:00:49  -8.5   -6.2     -9.97083     1      1      
iter:  52  22:00:50  -8.6   -6.5     -9.97083     1      1      
iter:  53  22:00:51  -8.6   -6.5     -9.97083     1      1      
iter:  54  22:00:52  -8.7   -6.4     -9.97082     1      1      
iter:  55  22:00:53  -8.8   -6.5     -9.97083     1      1      
iter:  56  22:00:54  -8.9   -6.3     -9.97082     1      1      
iter:  57  22:00:55  -9.0   -6.5     -9.97082     1      1      
iter:  58  22:00:56  -9.0   -6.5     -9.97082     1      1      
------------------------------------
Converged After 58 Iterations.

Energy Contributions Relative to Reference Atom:(reference = -41300.61049)
-------------------------
Kinetic:        +16.41519
Potential:      -14.15238
External:        +0.00000
XC:             -11.96297
Entropy (-ST):   -0.09299
Local:           -0.22417
-------------------------
Free Energy:    -10.01732
Zero Kelvin:     -9.97082

Fermi Level: 11.63910


Total Charge:  -0.000000 electrons
Dipole Moment: [-1.42297442 -1.42297442 -1.42297442]

Memory estimate
---------------
Calculator  213.00 MiB
    Initial overhead  201.48 MiB
    Density  4.08 MiB
        Arrays  0.34 MiB
        Localized functions  3.03 MiB
        Mixer  0.08 MiB
        Interpolator  0.64 MiB
    Hamiltonian  1.96 MiB
        Arrays  0.22 MiB
        Restrictor  0.37 MiB
        XC 3D grid  0.11 MiB
        Poisson  1.03 MiB
        vbar  0.22 MiB
    Wavefunctions  5.48 MiB
        Arrays psit_nG  3.96 MiB
        Eigensolver  0.53 MiB
        Projectors  0.51 MiB
        Overlap op  0.40 MiB
        Kinetic operator  0.09 MiB

Positions:
  0 Ni    0.0000    0.0000    0.0000

                
                
                
                
       Ni       
                
                
                

Unit Cell:
           Periodic     X           Y           Z      Points  Spacing
  --------------------------------------------------------------------
  1. axis:    yes    0.000000    1.762500    1.762500    12     0.2077
  2. axis:    yes    1.762500    0.000000    1.762500    12     0.2077
  3. axis:    yes    1.762500    1.762500    0.000000    12     0.2077

Ni-setup:
  name   : Nickel
  id     : 6dab36a46a24a91e25ff4f0c3a2da03f
  Z      : 28
  valence: 10
  core   : 18
  charge : 0.0
  file   : /usr/share/gpaw-setups/Ni.LDA.gz
  cutoffs: 0.95(comp), 1.77(filt), 2.43(core), lmax=2
  valence states:
            energy   radius
    4s(2)   -5.858   0.953
    4p(0)   -1.338   1.005
    3d(8)   -9.141   0.953
    *s      21.353   0.953
    *p      25.873   1.005
    *d      18.071   0.953

Using partial waves for Ni as LCAO basis

Using the LDA Exchange-Correlation Functional.
Spin-Paired Calculation
Total Charge:      0.000000
Fermi Temperature: 0.100000
Mode: Finite-difference
Eigensolver:       rmm-diis
                   (3 nearest neighbors central finite-difference stencil)
Poisson Solver:    Jacobi 
                   (3 nearest neighbors central finite-difference stencil)
Interpolation:     6th Order
Reference Energy:  -41300.610487

Total number of cores used: 1
Diagonalizer layout: Serial LAPACK
Orthonormalizer layout: Serial LAPACK

Symmetries present: 48
10 k-points in the Irreducible Part of the Brillouin Zone (total: 64)
Linear Mixing Parameter:           0.1
Pulay Mixing with 3 Old Densities
Damping of Long Wave Oscillations: 50

Convergence Criteria:
Total Energy Change per Atom:           0.001 eV / atom
Integral of Absolute Density Change:    0.0001 electrons
Integral of Absolute Eigenstate Change: 1e-09
Number of Bands in Calculation:         15
Bands to Converge:                      Occupied States Only
Number of Valence Electrons:            10
                     log10-error:    Total        Iterations:
           Time      WFS    Density  Energy       Fermi  Poisson
iter:   1  22:01:13  +2.7            -7.67282     3      13     
iter:   2  22:01:15  -1.2            -8.38260     3             
iter:   3  22:01:17  -1.9            -8.47825     2             
iter:   4  22:01:20  -2.3   -1.9     -8.50351     3      5      
iter:   5  22:01:22  -2.6   -2.0     -8.51592     3      6      
iter:   6  22:01:24  -2.8   -2.2     -8.52881     3      7      
iter:   7  22:01:26  -3.1   -2.6     -8.53223     3      5      
iter:   8  22:01:29  -3.3   -2.9     -8.53429     3      3      
iter:   9  22:01:31  -3.6   -3.2     -8.53493     2      4      
iter:  10  22:01:33  -3.8   -3.2     -8.53582     2      4      
iter:  11  22:01:35  -4.0   -3.2     -8.53607     2      3      
iter:  12  22:01:37  -4.2   -3.3     -8.53645     2      4      
iter:  13  22:01:39  -4.4   -3.6     -8.53665     2      3      
iter:  14  22:01:41  -4.6   -3.8     -8.53664     2      3      
iter:  15  22:01:44  -4.8   -4.1     -8.53664     2      1      
iter:  16  22:01:45  -4.9   -4.0     -8.53688     2      2      
iter:  17  22:01:48  -5.0   -4.0     -8.53667     2      2      
iter:  18  22:01:50  -5.2   -4.0     -8.53675     2      2      
iter:  19  22:01:52  -5.3   -4.1     -8.53679     2      2      
iter:  20  22:01:54  -5.5   -4.1     -8.53680     2      2      
iter:  21  22:01:56  -5.3   -4.3     -8.53694     2      3      
iter:  22  22:01:59  -5.8   -4.2     -8.53682     2      3      
iter:  23  22:02:01  -5.7   -4.5     -8.53692     2      1      
iter:  24  22:02:03  -5.9   -4.5     -8.53692     1      1      
iter:  25  22:02:06  -6.0   -4.6     -8.53699     2      1      
iter:  26  22:02:08  -6.2   -4.8     -8.53694     2      1      
iter:  27  22:02:09  -6.2   -4.9     -8.53693     2      1      
iter:  28  22:02:11  -6.5   -5.2     -8.53695     2      1      
iter:  29  22:02:13  -6.5   -5.8     -8.53691     2      1      
iter:  30  22:02:16  -6.5   -6.2     -8.53689     1      1      
iter:  31  22:02:18  -6.7   -6.0     -8.53689     1      1      
iter:  32  22:02:20  -6.8   -5.9     -8.53689     1      1      
iter:  33  22:02:22  -7.0   -5.9     -8.53689     1      1      
iter:  34  22:02:23  -7.0   -5.9     -8.53689     1      1      
iter:  35  22:02:25  -7.2   -5.9     -8.53688     1      1      
iter:  36  22:02:27  -7.3   -5.7     -8.53690     2      1      
iter:  37  22:02:29  -7.3   -5.9     -8.53691     2      1      
iter:  38  22:02:31  -7.3   -6.1     -8.53689     1      1      
iter:  39  22:02:33  -7.5   -6.0     -8.53687     2      1      
iter:  40  22:02:35  -7.8   -5.8     -8.53690     1      1      
iter:  41  22:02:38  -7.8   -6.0     -8.53691     2      1      
iter:  42  22:02:40  -7.9   -6.0     -8.53689     1      1      
iter:  43  22:02:42  -7.9   -5.9     -8.53689     1      1      
iter:  44  22:02:44  -8.1   -6.0     -8.53689     1      1      
iter:  45  22:02:47  -8.2   -6.2     -8.53689     1      1      
iter:  46  22:02:49  -8.3   -6.3     -8.53689     1      1      
iter:  47  22:02:51  -8.4   -6.5     -8.53689     1      1      
iter:  48  22:02:53  -8.4   -7.0     -8.53689     1      1      
iter:  49  22:02:56  -8.6   -6.9     -8.53689     1      1      
iter:  50  22:02:58  -8.7   -7.0     -8.53689     1      1      
iter:  51  22:03:00  -8.8   -7.0     -8.53689     1      1      
iter:  52  22:03:03  -8.9   -6.9     -8.53689     1      1      
iter:  53  22:03:05  -8.9   -7.0     -8.53689     1      1      
iter:  54  22:03:07  -9.1   -7.1     -8.53689     1      1      
------------------------------------
Converged After 54 Iterations.

Energy Contributions Relative to Reference Atom:(reference = -41300.61049)
-------------------------
Kinetic:         +8.61395
Potential:       -6.75207
External:        +0.00000
XC:             -10.11224
Entropy (-ST):   -0.10104
Local:           -0.23601
-------------------------
Free Energy:     -8.58741
Zero Kelvin:     -8.53689

Fermi Level: 9.60152


Total Charge:  -0.000000 electrons
Dipole Moment: [-1.03913782 -1.03913782 -1.03913782]

Memory estimate
---------------
Calculator  205.21 MiB
    Initial overhead  201.48 MiB
    Density  1.40 MiB
        Arrays  0.10 MiB
        Localized functions  0.99 MiB
        Mixer  0.02 MiB
        Interpolator  0.28 MiB
    Hamiltonian  0.68 MiB
        Arrays  0.07 MiB
        Restrictor  0.16 MiB
        XC 3D grid  0.03 MiB
        Poisson  0.35 MiB
        vbar  0.07 MiB
    Wavefunctions  1.66 MiB
        Arrays psit_nG  1.17 MiB
        Eigensolver  0.16 MiB
        Projectors  0.17 MiB
        Overlap op  0.12 MiB
        Kinetic operator  0.04 MiB

Positions:
  0 Ni    0.0000    0.0000    0.0000

                
                
                
                
       Ni       
                
                
                

Unit Cell:
           Periodic     X           Y           Z      Points  Spacing
  --------------------------------------------------------------------
  1. axis:    yes    0.000000    1.706250    1.706250     8     0.3016
  2. axis:    yes    1.706250    0.000000    1.706250     8     0.3016
  3. axis:    yes    1.706250    1.706250    0.000000     8     0.3016

Ni-setup:
  name   : Nickel
  id     : 6dab36a46a24a91e25ff4f0c3a2da03f
  Z      : 28
  valence: 10
  core   : 18
  charge : 0.0
  file   : /usr/share/gpaw-setups/Ni.LDA.gz
  cutoffs: 0.95(comp), 1.77(filt), 2.43(core), lmax=2
  valence states:
            energy   radius
    4s(2)   -5.858   0.953
    4p(0)   -1.338   1.005
    3d(8)   -9.141   0.953
    *s      21.353   0.953
    *p      25.873   1.005
    *d      18.071   0.953

Using partial waves for Ni as LCAO basis

Using the LDA Exchange-Correlation Functional.
Spin-Paired Calculation
Total Charge:      0.000000
Fermi Temperature: 0.100000
Mode: Finite-difference
Eigensolver:       rmm-diis
                   (3 nearest neighbors central finite-difference stencil)
Poisson Solver:    Jacobi 
                   (3 nearest neighbors central finite-difference stencil)
Interpolation:     6th Order
Reference Energy:  -41300.610487

Total number of cores used: 1
Diagonalizer layout: Serial LAPACK
Orthonormalizer layout: Serial LAPACK

Symmetries present: 48
10 k-points in the Irreducible Part of the Brillouin Zone (total: 64)
Linear Mixing Parameter:           0.1
Pulay Mixing with 3 Old Densities
Damping of Long Wave Oscillations: 50

Convergence Criteria:
Total Energy Change per Atom:           0.001 eV / atom
Integral of Absolute Density Change:    0.0001 electrons
Integral of Absolute Eigenstate Change: 1e-09
Number of Bands in Calculation:         15
Bands to Converge:                      Occupied States Only
Number of Valence Electrons:            10
                     log10-error:    Total        Iterations:
           Time      WFS    Density  Energy       Fermi  Poisson
iter:   1  22:03:14  +1.9            -9.17549     3      14     
iter:   2  22:03:15  -1.8            -9.96434     3             
iter:   3  22:03:16  -2.6            -10.04871    2             
iter:   4  22:03:17  -3.0   -1.9     -10.06928    3      6      
iter:   5  22:03:18  -3.3   -2.0     -10.08362    3      6      
iter:   6  22:03:19  -3.6   -2.1     -10.09559    3      7      
iter:   7  22:03:19  -3.9   -2.6     -10.09730    3      5      
iter:   8  22:03:20  -4.3   -3.1     -10.09813    3      3      
iter:   9  22:03:21  -4.5   -3.2     -10.09804    2      5      
iter:  10  22:03:22  -4.7   -3.4     -10.09874    2      3      
iter:  11  22:03:24  -4.9   -3.4     -10.09846    2      4      
iter:  12  22:03:24  -5.0   -3.6     -10.09895    2      3      
iter:  13  22:03:25  -5.2   -3.9     -10.09897    2      3      
iter:  14  22:03:26  -5.3   -4.3     -10.09910    2      1      
iter:  15  22:03:27  -5.4   -4.4     -10.09908    2      2      
iter:  16  22:03:28  -5.5   -4.8     -10.09893    2      1      
iter:  17  22:03:29  -5.6   -4.7     -10.09887    2      1      
iter:  18  22:03:30  -5.7   -4.8     -10.09877    2      1      
iter:  19  22:03:31  -5.8   -4.8     -10.09908    2      1      
iter:  20  22:03:32  -5.9   -4.8     -10.09901    1      1      
iter:  21  22:03:33  -6.0   -4.8     -10.09882    2      1      
iter:  22  22:03:34  -6.1   -4.7     -10.09918    2      1      
iter:  23  22:03:35  -6.1   -4.8     -10.09922    2      1      
iter:  24  22:03:36  -6.2   -4.8     -10.09933    2      1      
iter:  25  22:03:37  -6.3   -4.9     -10.09925    2      1      
iter:  26  22:03:38  -6.4   -5.0     -10.09902    2      1      
iter:  27  22:03:39  -6.5   -5.3     -10.09915    2      1      
iter:  28  22:03:40  -6.6   -5.4     -10.09918    1      1      
iter:  29  22:03:40  -6.7   -5.5     -10.09914    1      1      
iter:  30  22:03:41  -6.7   -5.5     -10.09908    1      1      
iter:  31  22:03:43  -6.8   -5.5     -10.09911    1      1      
iter:  32  22:03:44  -6.9   -5.7     -10.09909    1      1      
iter:  33  22:03:45  -7.0   -5.8     -10.09909    1      1      
iter:  34  22:03:45  -7.1   -5.8     -10.09908    1      1      
iter:  35  22:03:46  -7.2   -5.6     -10.09910    1      1      
iter:  36  22:03:47  -7.3   -5.6     -10.09909    1      1      
iter:  37  22:03:48  -7.4   -5.6     -10.09907    1      1      
iter:  38  22:03:49  -7.4   -5.5     -10.09912    1      1      
iter:  39  22:03:50  -7.5   -5.6     -10.09918    2      1      
iter:  40  22:03:51  -7.6   -5.9     -10.09911    1      1      
iter:  41  22:03:52  -7.7   -6.0     -10.09910    1      1      
iter:  42  22:03:53  -7.8   -5.9     -10.09909    1      1      
iter:  43  22:03:54  -7.9   -6.0     -10.09909    1      1      
iter:  44  22:03:55  -7.9   -6.0     -10.09909    1      1      
iter:  45  22:03:55  -8.0   -6.1     -10.09909    1      1      
iter:  46  22:03:56  -8.1   -6.0     -10.09909    1      1      
iter:  47  22:03:57  -8.2   -6.0     -10.09909    1      1      
iter:  48  22:03:58  -8.3   -6.0     -10.09909    1      1      
iter:  49  22:03:59  -8.4   -6.0     -10.09910    1      1      
iter:  50  22:04:00  -8.4   -6.1     -10.09912    1      1      
iter:  51  22:04:01  -8.5   -6.3     -10.09909    1      1      
iter:  52  22:04:02  -8.6   -6.4     -10.09909    1      1      
iter:  53  22:04:03  -8.7   -6.1     -10.09908    1      1      
iter:  54  22:04:03  -8.8   -6.5     -10.09908    1      1      
iter:  55  22:04:04  -8.9   -6.2     -10.09909    1      1      
iter:  56  22:04:05  -8.9   -6.4     -10.09909    1      1      
iter:  57  22:04:06  -9.0   -6.5     -10.09910    1      1      
------------------------------------
Converged After 57 Iterations.

Energy Contributions Relative to Reference Atom:(reference = -41300.61049)
-------------------------
Kinetic:        +14.33367
Potential:      -12.58614
External:        +0.00000
XC:             -11.56733
Entropy (-ST):   -0.09513
Local:           -0.23173
-------------------------
Free Energy:    -10.14666
Zero Kelvin:    -10.09910

Fermi Level: 11.07246


Total Charge:  -0.000000 electrons
Dipole Moment: [-1.45523482 -1.45523482 -1.45523482]

Memory estimate
---------------
Calculator  213.13 MiB
    Initial overhead  201.48 MiB
    Density  4.18 MiB
        Arrays  0.34 MiB
        Localized functions  3.12 MiB
        Mixer  0.08 MiB
        Interpolator  0.64 MiB
    Hamiltonian  1.97 MiB
        Arrays  0.22 MiB
        Restrictor  0.37 MiB
        XC 3D grid  0.11 MiB
        Poisson  1.03 MiB
        vbar  0.23 MiB
    Wavefunctions  5.49 MiB
        Arrays psit_nG  3.96 MiB
        Eigensolver  0.53 MiB
        Projectors  0.52 MiB
        Overlap op  0.40 MiB
        Kinetic operator  0.09 MiB

Positions:
  0 Ni    0.0000    0.0000    0.0000

                
                
                
                
       Ni       
                
                
                

Unit Cell:
           Periodic     X           Y           Z      Points  Spacing
  --------------------------------------------------------------------
  1. axis:    yes    0.000000    1.743750    1.743750    12     0.2055
  2. axis:    yes    1.743750    0.000000    1.743750    12     0.2055
  3. axis:    yes    1.743750    1.743750    0.000000    12     0.2055

Ni-setup:
  name   : Nickel
  id     : 6dab36a46a24a91e25ff4f0c3a2da03f
  Z      : 28
  valence: 10
  core   : 18
  charge : 0.0
  file   : /usr/share/gpaw-setups/Ni.LDA.gz
  cutoffs: 0.95(comp), 1.77(filt), 2.43(core), lmax=2
  valence states:
            energy   radius
    4s(2)   -5.858   0.953
    4p(0)   -1.338   1.005
    3d(8)   -9.141   0.953
    *s      21.353   0.953
    *p      25.873   1.005
    *d      18.071   0.953

Using partial waves for Ni as LCAO basis

Using the LDA Exchange-Correlation Functional.
Spin-Paired Calculation
Total Charge:      0.000000
Fermi Temperature: 0.100000
Mode: Finite-difference
Eigensolver:       rmm-diis
                   (3 nearest neighbors central finite-difference stencil)
Poisson Solver:    Jacobi 
                   (3 nearest neighbors central finite-difference stencil)
Interpolation:     6th Order
Reference Energy:  -41300.610487

Total number of cores used: 1
Diagonalizer layout: Serial LAPACK
Orthonormalizer layout: Serial LAPACK

Symmetries present: 48
10 k-points in the Irreducible Part of the Brillouin Zone (total: 64)
Linear Mixing Parameter:           0.1
Pulay Mixing with 3 Old Densities
Damping of Long Wave Oscillations: 50

Convergence Criteria:
Total Energy Change per Atom:           0.001 eV / atom
Integral of Absolute Density Change:    0.0001 electrons
Integral of Absolute Eigenstate Change: 1e-09
Number of Bands in Calculation:         15
Bands to Converge:                      Occupied States Only
Number of Valence Electrons:            10
                     log10-error:    Total        Iterations:
           Time      WFS    Density  Energy       Fermi  Poisson
iter:   1  22:04:24  +2.8            -7.65122     3      13     
iter:   2  22:04:25  -1.1            -8.38887     3             
iter:   3  22:04:28  -1.8            -8.49126     2             
iter:   4  22:04:30  -2.3   -2.0     -8.52011     3      5      
iter:   5  22:04:32  -2.6   -2.1     -8.53449     3      6      
iter:   6  22:04:35  -2.9   -2.2     -8.54681     3      7      
iter:   7  22:04:37  -3.1   -2.7     -8.55034     3      4      
iter:   8  22:04:40  -3.4   -3.0     -8.55221     3      4      
iter:   9  22:04:42  -3.6   -3.2     -8.55302     2      4      
iter:  10  22:04:44  -3.8   -3.2     -8.55383     2      4      
iter:  11  22:04:46  -4.0   -3.2     -8.55419     2      3      
iter:  12  22:04:48  -4.1   -3.3     -8.55441     2      5      
iter:  13  22:04:50  -4.4   -3.5     -8.55462     2      4      
iter:  14  22:04:53  -4.5   -3.7     -8.55480     2      3      
iter:  15  22:04:55  -4.8   -4.0     -8.55499     2      2      
iter:  16  22:04:57  -4.8   -4.1     -8.55477     2      2      
iter:  17  22:04:59  -5.1   -4.1     -8.55476     2      1      
iter:  18  22:05:01  -5.2   -4.2     -8.55481     2      3      
iter:  19  22:05:03  -5.4   -4.3     -8.55503     2      1      
iter:  20  22:05:05  -5.5   -4.5     -8.55494     2      2      
iter:  21  22:05:06  -5.7   -5.0     -8.55495     1      1      
iter:  22  22:05:09  -5.7   -5.2     -8.55494     2      1      
iter:  23  22:05:11  -5.8   -5.1     -8.55497     2      1      
iter:  24  22:05:12  -5.9   -5.3     -8.55493     2      1      
iter:  25  22:05:14  -6.2   -5.3     -8.55493     2      1      
iter:  26  22:05:16  -6.0   -5.4     -8.55492     1      1      
iter:  27  22:05:18  -6.3   -5.4     -8.55496     2      1      
iter:  28  22:05:20  -6.5   -5.5     -8.55492     1      1      
iter:  29  22:05:22  -6.6   -5.5     -8.55488     1      1      
iter:  30  22:05:25  -6.6   -5.6     -8.55489     1      1      
iter:  31  22:05:27  -6.7   -5.7     -8.55490     1      1      
iter:  32  22:05:29  -6.9   -5.9     -8.55490     1      1      
iter:  33  22:05:31  -7.0   -6.2     -8.55491     1      1      
iter:  34  22:05:33  -7.0   -6.4     -8.55491     1      1      
iter:  35  22:05:35  -7.2   -6.4     -8.55491     1      1      
iter:  36  22:05:37  -7.2   -6.4     -8.55491     1      1      
iter:  37  22:05:39  -7.4   -6.2     -8.55491     1      1      
iter:  38  22:05:42  -7.4   -6.5     -8.55491     1      1      
iter:  39  22:05:44  -7.7   -6.3     -8.55491     1      1      
iter:  40  22:05:46  -7.7   -6.3     -8.55491     1      1      
iter:  41  22:05:48  -7.7   -6.5     -8.55491     1      1      
iter:  42  22:05:50  -7.9   -6.3     -8.55491     1      1      
iter:  43  22:05:52  -7.9   -6.4     -8.55491     1      1      
iter:  44  22:05:54  -8.2   -6.2     -8.55491     1      1      
iter:  45  22:05:57  -8.2   -6.3     -8.55491     1      1      
iter:  46  22:05:59  -8.3   -6.2     -8.55492     1      1      
iter:  47  22:06:01  -8.3   -6.4     -8.55492     1      1      
iter:  48  22:06:03  -8.5   -6.5     -8.55491     1      1      
iter:  49  22:06:05  -8.7   -6.7     -8.55491     1      1      
iter:  50  22:06:07  -8.8   -6.6     -8.55490     1      1      
iter:  51  22:06:09  -8.9   -6.7     -8.55491     1      1      
iter:  52  22:06:11  -8.9   -6.9     -8.55491     1      1      
iter:  53  22:06:13  -9.1   -6.9     -8.55491     1      1      
------------------------------------
Converged After 53 Iterations.

Energy Contributions Relative to Reference Atom:(reference = -41300.61049)
-------------------------
Kinetic:        +10.00426
Potential:       -7.82997
External:        +0.00000
XC:             -10.44575
Entropy (-ST):   -0.09899
Local:           -0.23396
-------------------------
Free Energy:     -8.60441
Zero Kelvin:     -8.55491

Fermi Level: 10.09231


Total Charge:  -0.000000 electrons
Dipole Moment: [-1.01683273 -1.01683273 -1.01683273]

Memory estimate
---------------
Calculator  215.02 MiB
    Initial overhead  211.31 MiB
    Density  1.38 MiB
        Arrays  0.10 MiB
        Localized functions  0.97 MiB
        Mixer  0.02 MiB
        Interpolator  0.28 MiB
    Hamiltonian  0.67 MiB
        Arrays  0.07 MiB
        Restrictor  0.16 MiB
        XC 3D grid  0.03 MiB
        Poisson  0.35 MiB
        vbar  0.07 MiB
    Wavefunctions  1.65 MiB
        Arrays psit_nG  1.17 MiB
        Eigensolver  0.16 MiB
        Projectors  0.16 MiB
        Overlap op  0.12 MiB
        Kinetic operator  0.04 MiB

Positions:
[...]
iter:  35  22:36:52  -7.2   -5.2     -10.25663    1      1      
iter:  36  22:36:52  -7.3   -5.2     -10.25646    1      1      
iter:  37  22:36:53  -7.3   -5.2     -10.25665    2      1      
iter:  38  22:36:54  -7.4   -5.2     -10.25676    2      1      
iter:  39  22:36:55  -7.5   -5.2     -10.25672    2      1      
iter:  40  22:36:56  -7.6   -5.2     -10.25662    1      1      
iter:  41  22:36:57  -7.6   -5.2     -10.25658    1      1      
iter:  42  22:36:57  -7.8   -5.4     -10.25659    1      1      
iter:  43  22:36:58  -7.9   -5.6     -10.25666    2      1      
iter:  44  22:36:59  -8.0   -5.8     -10.25664    1      1      
iter:  45  22:37:00  -8.0   -6.0     -10.25662    1      1      
iter:  46  22:37:01  -8.1   -6.1     -10.25662    1      1      
iter:  47  22:37:02  -8.2   -6.1     -10.25662    1      1      
iter:  48  22:37:03  -8.3   -6.2     -10.25662    1      1      
iter:  49  22:37:04  -8.4   -6.1     -10.25663    1      1      
iter:  50  22:37:04  -8.5   -6.1     -10.25663    1      1      
iter:  51  22:37:05  -8.5   -6.3     -10.25663    1      1      
iter:  52  22:37:06  -8.6   -6.4     -10.25664    1      1      
iter:  53  22:37:07  -8.7   -6.5     -10.25663    1      1      
iter:  54  22:37:08  -8.8   -6.6     -10.25663    1      1      
iter:  55  22:37:09  -8.9   -6.7     -10.25662    1      1      
iter:  56  22:37:10  -8.9   -6.8     -10.25662    1      1      
iter:  57  22:37:11  -9.0   -6.7     -10.25662    1      1      
------------------------------------
Converged After 57 Iterations.

Energy Contributions Relative to Reference Atom:(reference = -41300.61049)
-------------------------
Kinetic:        +11.75054
Potential:      -10.65361
External:        +0.00000
XC:             -11.07002
Entropy (-ST):   -0.09814
Local:           -0.23447
-------------------------
Free Energy:    -10.30569
Zero Kelvin:    -10.25662

Fermi Level: 10.33482


Total Charge:  0.000000 electrons
Dipole Moment: [-1.49986202 -1.49986202 -1.49986202]

Memory estimate
---------------
Calculator  307.41 MiB
    Initial overhead  303.73 MiB
    Density  1.35 MiB
        Arrays  0.10 MiB
        Localized functions  0.94 MiB
        Mixer  0.02 MiB
        Interpolator  0.28 MiB
    Hamiltonian  0.67 MiB
        Arrays  0.07 MiB
        Restrictor  0.16 MiB
        XC 3D grid  0.03 MiB
        Poisson  0.35 MiB
        vbar  0.07 MiB
    Wavefunctions  1.65 MiB
        Arrays psit_nG  1.17 MiB
        Eigensolver  0.16 MiB
        Projectors  0.16 MiB
        Overlap op  0.12 MiB
        Kinetic operator  0.04 MiB

Positions:
  0 Ni    0.0000    0.0000    0.0000

                
                
                
                
       Ni       
                
                
                

Unit Cell:
           Periodic     X           Y           Z      Points  Spacing
  --------------------------------------------------------------------
  1. axis:    yes    0.000000    1.732050    1.732050     8     0.3062
  2. axis:    yes    1.732050    0.000000    1.732050     8     0.3062
  3. axis:    yes    1.732050    1.732050    0.000000     8     0.3062

Ni-setup:
  name   : Nickel
  id     : 6dab36a46a24a91e25ff4f0c3a2da03f
  Z      : 28
  valence: 10
  core   : 18
  charge : 0.0
  file   : /usr/share/gpaw-setups/Ni.LDA.gz
  cutoffs: 0.95(comp), 1.77(filt), 2.43(core), lmax=2
  valence states:
            energy   radius
    4s(2)   -5.858   0.953
    4p(0)   -1.338   1.005
    3d(8)   -9.141   0.953
    *s      21.353   0.953
    *p      25.873   1.005
    *d      18.071   0.953

Using partial waves for Ni as LCAO basis

Using the LDA Exchange-Correlation Functional.
Spin-Paired Calculation
Total Charge:      0.000000
Fermi Temperature: 0.100000
Mode: Finite-difference
Eigensolver:       rmm-diis
                   (3 nearest neighbors central finite-difference stencil)
Poisson Solver:    Jacobi 
                   (3 nearest neighbors central finite-difference stencil)
Interpolation:     6th Order
Reference Energy:  -41300.610487

Total number of cores used: 1
Diagonalizer layout: Serial LAPACK
Orthonormalizer layout: Serial LAPACK

Symmetries present: 48
10 k-points in the Irreducible Part of the Brillouin Zone (total: 64)
Linear Mixing Parameter:           0.1
Pulay Mixing with 3 Old Densities
Damping of Long Wave Oscillations: 50

Convergence Criteria:
Total Energy Change per Atom:           0.001 eV / atom
Integral of Absolute Density Change:    0.0001 electrons
Integral of Absolute Eigenstate Change: 1e-09
Number of Bands in Calculation:         15
Bands to Converge:                      Occupied States Only
Number of Valence Electrons:            10
                     log10-error:    Total        Iterations:
           Time      WFS    Density  Energy       Fermi  Poisson
iter:   1  22:37:18  +1.9            -9.35044     3      14     
iter:   2  22:37:20  -1.8            -10.13467    3             
iter:   3  22:37:20  -2.6            -10.21404    2             
iter:   4  22:37:21  -2.9   -1.8     -10.22880    3      6      
iter:   5  22:37:22  -3.2   -1.9     -10.23967    4      7      
iter:   6  22:37:23  -3.4   -2.1     -10.25362    3      7      
iter:   7  22:37:24  -3.6   -2.5     -10.25460    3      6      
iter:   8  22:37:25  -4.2   -3.0     -10.25567    3      3      
iter:   9  22:37:25  -4.3   -3.1     -10.25607    3      4      
iter:  10  22:37:26  -4.2   -3.0     -10.25591    3      5      
iter:  11  22:37:27  -4.7   -3.0     -10.25633    3      3      
iter:  12  22:37:28  -5.0   -3.4     -10.25630    2      2      
iter:  13  22:37:29  -5.0   -3.5     -10.25654    2      3      
iter:  14  22:37:30  -5.3   -3.6     -10.25661    2      2      
iter:  15  22:37:31  -5.3   -3.6     -10.25674    2      2      
iter:  16  22:37:31  -5.5   -3.8     -10.25672    2      3      
iter:  17  22:37:32  -5.6   -4.0     -10.25692    2      2      
iter:  18  22:37:33  -5.7   -4.1     -10.25689    2      3      
iter:  19  22:37:34  -5.7   -4.5     -10.25657    2      2      
iter:  20  22:37:35  -5.8   -4.8     -10.25662    2      2      
iter:  21  22:37:36  -5.9   -4.5     -10.25689    2      2      
iter:  22  22:37:37  -6.0   -5.1     -10.25701    2      1      
iter:  23  22:37:37  -6.1   -5.2     -10.25680    2      1      
iter:  24  22:37:38  -6.2   -5.2     -10.25683    2      1      
iter:  25  22:37:39  -6.3   -5.3     -10.25683    2      1      
iter:  26  22:37:40  -6.4   -5.3     -10.25681    1      1      
iter:  27  22:37:41  -6.4   -5.3     -10.25680    1      1      
iter:  28  22:37:42  -6.5   -5.2     -10.25682    1      1      
iter:  29  22:37:43  -6.6   -5.2     -10.25684    2      1      
iter:  30  22:37:44  -6.7   -5.1     -10.25680    2      1      
iter:  31  22:37:44  -6.8   -5.1     -10.25683    2      1      
iter:  32  22:37:45  -6.9   -5.0     -10.25686    2      1      
iter:  33  22:37:46  -7.0   -5.1     -10.25705    2      1      
iter:  34  22:37:47  -7.1   -5.4     -10.25682    1      1      
iter:  35  22:37:48  -7.1   -5.6     -10.25687    1      1      
iter:  36  22:37:49  -7.2   -5.6     -10.25689    1      1      
iter:  37  22:37:50  -7.3   -5.7     -10.25683    1      1      
iter:  38  22:37:51  -7.4   -5.8     -10.25690    1      1      
iter:  39  22:37:52  -7.5   -5.9     -10.25683    1      1      
iter:  40  22:37:52  -7.6   -6.1     -10.25684    1      1      
iter:  41  22:37:53  -7.7   -6.2     -10.25685    1      1      
iter:  42  22:37:54  -7.7   -6.3     -10.25684    1      1      
iter:  43  22:37:55  -7.8   -6.3     -10.25682    1      1      
iter:  44  22:37:56  -7.9   -6.0     -10.25685    1      1      
iter:  45  22:37:57  -8.0   -6.1     -10.25681    1      1      
iter:  46  22:37:58  -8.1   -5.9     -10.25683    1      1      
iter:  47  22:37:59  -8.2   -5.9     -10.25688    1      1      
iter:  48  22:38:00  -8.2   -6.2     -10.25684    1      1      
iter:  49  22:38:01  -8.3   -6.1     -10.25685    2      1      
iter:  50  22:38:02  -8.4   -5.7     -10.25682    2      1      
iter:  51  22:38:03  -8.5   -6.3     -10.25682    1      1      
iter:  52  22:38:04  -8.6   -6.1     -10.25684    1      1      
iter:  53  22:38:05  -8.7   -6.3     -10.25683    1      1      
iter:  54  22:38:06  -8.7   -6.2     -10.25684    1      1      
iter:  55  22:38:08  -8.8   -6.4     -10.25684    1      1      
iter:  56  22:38:10  -8.9   -6.6     -10.25683    1      1      
iter:  57  22:38:12  -9.0   -6.6     -10.25683    1      1      
iter:  58  22:38:14  -9.0   -6.5     -10.25683    1      1      
------------------------------------
Converged After 58 Iterations.

Energy Contributions Relative to Reference Atom:(reference = -41300.61049)
-------------------------
Kinetic:        +11.74671
Potential:      -10.65071
External:        +0.00000
XC:             -11.06932
Entropy (-ST):   -0.09814
Local:           -0.23444
-------------------------
Free Energy:    -10.30590
Zero Kelvin:    -10.25683

Fermi Level: 10.33380


Total Charge:  -0.000000 electrons
Dipole Moment: [-1.49992597 -1.49992597 -1.49992597]

Memory estimate
---------------
Calculator  315.45 MiB
    Initial overhead  303.73 MiB
    Density  4.25 MiB
        Arrays  0.34 MiB
        Localized functions  3.19 MiB
        Mixer  0.08 MiB
        Interpolator  0.64 MiB
    Hamiltonian  1.97 MiB
        Arrays  0.22 MiB
        Restrictor  0.37 MiB
        XC 3D grid  0.11 MiB
        Poisson  1.03 MiB
        vbar  0.24 MiB
    Wavefunctions  5.50 MiB
        Arrays psit_nG  3.96 MiB
        Eigensolver  0.53 MiB
        Projectors  0.53 MiB
        Overlap op  0.40 MiB
        Kinetic operator  0.09 MiB

Positions:
  0 Ni    0.0000    0.0000    0.0000

                
                
                
                
       Ni       
                
                
                

Unit Cell:
           Periodic     X           Y           Z      Points  Spacing
  --------------------------------------------------------------------
  1. axis:    yes    0.000000    1.732068    1.732068    12     0.2041
  2. axis:    yes    1.732068    0.000000    1.732068    12     0.2041
  3. axis:    yes    1.732068    1.732068    0.000000    12     0.2041

Ni-setup:
  name   : Nickel
  id     : 6dab36a46a24a91e25ff4f0c3a2da03f
  Z      : 28
  valence: 10
  core   : 18
  charge : 0.0
  file   : /usr/share/gpaw-setups/Ni.LDA.gz
  cutoffs: 0.95(comp), 1.77(filt), 2.43(core), lmax=2
  valence states:
            energy   radius
    4s(2)   -5.858   0.953
    4p(0)   -1.338   1.005
    3d(8)   -9.141   0.953
    *s      21.353   0.953
    *p      25.873   1.005
    *d      18.071   0.953

Using partial waves for Ni as LCAO basis

Using the LDA Exchange-Correlation Functional.
Spin-Paired Calculation
Total Charge:      0.000000
Fermi Temperature: 0.100000
Mode: Finite-difference
Eigensolver:       rmm-diis
                   (3 nearest neighbors central finite-difference stencil)
Poisson Solver:    Jacobi 
                   (3 nearest neighbors central finite-difference stencil)
Interpolation:     6th Order
Reference Energy:  -41300.610487

Total number of cores used: 1
Diagonalizer layout: Serial LAPACK
Orthonormalizer layout: Serial LAPACK

Symmetries present: 48
10 k-points in the Irreducible Part of the Brillouin Zone (total: 64)
Linear Mixing Parameter:           0.1
Pulay Mixing with 3 Old Densities
Damping of Long Wave Oscillations: 50

Convergence Criteria:
Total Energy Change per Atom:           0.001 eV / atom
Integral of Absolute Density Change:    0.0001 electrons
Integral of Absolute Eigenstate Change: 1e-09
Number of Bands in Calculation:         15
Bands to Converge:                      Occupied States Only
Number of Valence Electrons:            10
                     log10-error:    Total        Iterations:
           Time      WFS    Density  Energy       Fermi  Poisson
iter:   1  22:38:36  +2.8            -7.63269     3      13     
iter:   2  22:38:38  -1.1            -8.38648     3             
iter:   3  22:38:41  -1.8            -8.49294     2             
iter:   4  22:38:43  -2.3   -2.0     -8.52343     2      5      
iter:   5  22:38:46  -2.6   -2.1     -8.53885     2      6      
iter:   6  22:38:48  -2.9   -2.2     -8.55095     2      7      
iter:   7  22:38:50  -3.1   -2.9     -8.55419     3      4      
iter:   8  22:38:52  -3.4   -3.0     -8.55619     2      4      
iter:   9  22:38:54  -3.6   -3.1     -8.55706     2      4      
iter:  10  22:38:57  -3.8   -3.2     -8.55784     2      4      
iter:  11  22:38:59  -4.0   -3.6     -8.55818     2      4      
iter:  12  22:39:01  -4.2   -3.8     -8.55834     2      2      
iter:  13  22:39:03  -4.4   -3.8     -8.55851     2      3      
iter:  14  22:39:06  -4.5   -3.9     -8.55856     2      3      
iter:  15  22:39:08  -4.8   -3.8     -8.55887     2      3      
iter:  16  22:39:10  -4.9   -4.0     -8.55873     2      2      
iter:  17  22:39:13  -5.0   -4.0     -8.55889     2      2      
iter:  18  22:39:16  -5.0   -4.0     -8.55875     2      4      
iter:  19  22:39:18  -5.3   -3.5     -8.55898     2      4      
iter:  20  22:39:21  -5.5   -4.2     -8.55906     2      2      
iter:  21  22:39:24  -5.5   -4.4     -8.55900     2      2      
iter:  22  22:39:26  -5.7   -4.3     -8.55859     2      1      
iter:  23  22:39:29  -5.7   -4.5     -8.55868     2      1      
iter:  24  22:39:31  -5.8   -4.6     -8.55906     2      1      
iter:  25  22:39:34  -5.9   -4.7     -8.55900     2      1      
iter:  26  22:39:37  -6.2   -4.5     -8.55878     2      1      
iter:  27  22:39:40  -6.3   -4.7     -8.55883     2      1      
iter:  28  22:39:42  -6.4   -4.8     -8.55871     2      1      
iter:  29  22:39:44  -6.1   -5.1     -8.55883     2      1      
iter:  30  22:39:47  -6.6   -5.3     -8.55877     2      1      
iter:  31  22:39:49  -6.7   -5.3     -8.55896     2      1      
iter:  32  22:39:52  -6.7   -5.4     -8.55888     2      1      
iter:  33  22:39:54  -6.9   -5.2     -8.55893     1      1      
iter:  34  22:39:56  -6.7   -5.3     -8.55899     2      1      
iter:  35  22:39:58  -6.9   -5.6     -8.55898     2      1      
iter:  36  22:40:01  -7.2   -5.6     -8.55892     1      1      
iter:  37  22:40:03  -7.1   -5.7     -8.55894     1      1      
iter:  38  22:40:05  -7.4   -5.7     -8.55893     1      1      
iter:  39  22:40:07  -7.3   -5.7     -8.55885     2      1      
iter:  40  22:40:10  -7.7   -5.5     -8.55897     2      1      
iter:  41  22:40:12  -7.6   -6.0     -8.55902     2      1      
iter:  42  22:40:15  -7.8   -5.3     -8.55887     2      1      
iter:  43  22:40:17  -7.9   -6.0     -8.55890     2      1      
iter:  44  22:40:19  -8.0   -6.1     -8.55894     1      1      
iter:  45  22:40:21  -7.8   -6.1     -8.55892     1      1      
iter:  46  22:40:24  -8.2   -6.5     -8.55893     1      1      
iter:  47  22:40:26  -8.2   -6.5     -8.55893     1      1      
iter:  48  22:40:27  -8.4   -6.7     -8.55893     1      1      
iter:  49  22:40:29  -8.5   -7.2     -8.55893     1      1      
iter:  50  22:40:31  -8.4   -7.0     -8.55893     1      1      
iter:  51  22:40:34  -8.7   -6.9     -8.55893     1      1      
iter:  52  22:40:36  -8.8   -6.7     -8.55893     1      1      
iter:  53  22:40:39  -8.9   -6.7     -8.55893     1      1      
iter:  54  22:40:41  -8.9   -6.8     -8.55893     1      1      
iter:  55  22:40:44  -9.1   -7.0     -8.55893     1      1      
------------------------------------
Converged After 55 Iterations.

Energy Contributions Relative to Reference Atom:(reference = -41300.61049)
-------------------------
Kinetic:        +10.97124
Potential:       -8.58227
External:        +0.00000
XC:             -10.66685
Entropy (-ST):   -0.09773
Local:           -0.23219
-------------------------
Free Energy:     -8.60780
Zero Kelvin:     -8.55893

Fermi Level: 10.40958


Total Charge:  -0.000000 electrons
Dipole Moment: [-1.00302026 -1.00302026 -1.00302026]
<?xml version="1.0" ?>
<test id="FCCLattice">
	<config>
		<potential>
			GPAW
		</potential>
		<element>
			Ni
		</element>
	</config>
	<results>
		<FCCLatticeConstant>
			3.46409912109
		</FCCLatticeConstant>
		<FCCEnergyPerAtom>
			-10.2568310806
		</FCCEnergyPerAtom>
	</results>
</test>

Memory usage: 303.73 MB

============================================================
Timing:                               incl.     excl.
============================================================
Initialization:                     347.707    53.782   1.8% ||
 Hamiltonian:                         6.888     0.005   0.0% |
  Atomic:                             3.174     0.103   0.0% |
   XC Correction:                     3.071     3.071   0.1% |
  Communicate energies:               0.001     0.001   0.0% |
  Hartree integrate/restrict:         0.031     0.031   0.0% |
  Initialize Hamiltonian:             0.144     0.144   0.0% |
  Poisson:                            3.205     3.205   0.1% |
  XC 3D grid:                         0.311     0.311   0.0% |
  vbar:                               0.017     0.017   0.0% |
 LCAO initialization:               287.038     9.034   0.3% |
  LCAO eigensolver:                 214.412     0.058   0.0% |
   Atomic Hamiltonian:                0.057     0.057   0.0% |
   Calculate projections:             0.013     0.013   0.0% |
   Distribute overlap matrix:         0.007     0.007   0.0% |
   Orbital Layouts:                   0.111     0.111   0.0% |
   Potential matrix:                214.166   214.166   7.2% |--|
  LCAO to grid:                      34.280    34.280   1.2% |
  Set positions (LCAO WFS):          29.312     0.025   0.0% |
   Basic WFS set positions:           0.097     0.097   0.0% |
   Basis functions set positions:     0.002     0.002   0.0% |
   TCI: Calculate S, T, P:           29.189    29.189   1.0% |
SCF-cycle:                         2611.850    14.535   0.5% |
 Density:                            71.778     0.218   0.0% |
  Atomic density matrices:           19.072    19.072   0.6% |
  Mix:                                9.417     9.417   0.3% |
  Multipole moments:                  0.198     0.198   0.0% |
  Pseudo density:                    42.873    22.175   0.7% |
   Symmetrize density:               20.697    20.697   0.7% |
 Hamiltonian:                       227.832     0.294   0.0% |
  Atomic:                           182.575     5.928   0.2% |
   XC Correction:                   176.647   176.647   6.0% |-|
  Communicate energies:               0.028     0.028   0.0% |
  Hartree integrate/restrict:         1.822     1.822   0.1% |
  Poisson:                           25.249    25.249   0.9% |
  XC 3D grid:                        17.184    17.184   0.6% |
  vbar:                               0.680     0.680   0.0% |
 Orthonormalize:                    397.367   340.906  11.5% |----|
  Band Layouts:                       2.967     0.451   0.0% |
   Distribute results:                0.174     0.174   0.0% |
   Inverse Cholesky:                  2.343     2.343   0.1% |
  calc_matrix:                       30.371    30.371   1.0% |
  rotate_psi:                        23.124    23.124   0.8% |
 RMM-DIIS:                         1716.552  1309.358  44.2% |-----------------|
  precondition:                     407.194   407.194  13.8% |-----|
 Subspace diag:                     183.785     2.882   0.1% |
  Band Layouts:                       7.872     0.726   0.0% |
   Diagonalize:                       6.688     6.688   0.2% |
   Distribute results:                0.458     0.458   0.0% |
  calc_matrix:                      130.284   130.284   4.4% |-|
  rotate_psi:                        42.747    42.747   1.4% ||
Other:                                0.311     0.311   0.0% |
============================================================
Total:                                       2959.868 100.0%
============================================================
date: Wed Feb  2 22:40:44 2011
